+ 0.5 0 1 tcp 40 ------- 1 0.0 5.0 0 0
- 0.5 0 1 tcp 40 ------- 1 0.0 5.0 0 0
r 0.51016 0 1 tcp 40 ------- 1 0.0 5.0 0 0
+ 0.51016 1 2 tcp 40 ------- 1 0.0 5.0 0 0
- 0.51016 1 2 tcp 40 ------- 1 0.0 5.0 0 0
r 0.53048 1 2 tcp 40 ------- 1 0.0 5.0 0 0
+ 0.53048 2 5 tcp 40 ------- 1 0.0 5.0 0 0
- 0.53048 2 5 tcp 40 ------- 1 0.0 5.0 0 0
r 0.54064 2 5 tcp 40 ------- 1 0.0 5.0 0 0
+ 0.54064 5 2 ack 40 ------- 1 5.0 0.0 0 1