V -t * -v 1.0a5 -a 0
A -t * -n 1 -p 0 -o 0xffffffff -c 31 -a 1
A -t * -h 1 -m 2147483647 -s 0
c -t * -i 1 -n Yellow
c -t * -i 2 -n Green
c -t * -i 3 -n Blue
n -t * -a 4 -s 4 -S UP -v circle -c black -i black
n -t * -a 0 -s 0 -S UP -v circle -c black -i black
n -t * -a 5 -s 5 -S UP -v circle -c black -i black
n -t * -a 1 -s 1 -S UP -v circle -c black -i black
n -t * -a 2 -s 2 -S UP -v circle -c black -i black
n -t * -a 3 -s 3 -S UP -v circle -c black -i black
l -t * -s 0 -d 1 -S UP -r 2000000 -D 0.01 -c black
l -t * -s 1 -d 2 -S UP -r 1000000 -D 0.02 -c black
l -t * -s 1 -d 3 -S UP -r 2000000 -D 0.01 -c black
l -t * -s 1 -d 4 -S UP -r 1000000 -D 0.02 -c black
l -t * -s 4 -d 5 -S UP -r 2000000 -D 0.01 -c black
l -t * -s 2 -d 5 -S UP -r 2000000 -D 0.01 -c black
q -t * -s 1 -d 2 -a 0.5
q -t * -s 2 -d 1 -a 0.5
+ -t 0.5 -s 0 -d 1 -p tcp -e 40 -c 1 -i 0 -a 1 -x {0.0 5.0 0 ------- null}
- -t 0.5 -s 0 -d 1 -p tcp -e 40 -c 1 -i 0 -a 1 -x {0.0 5.0 0 ------- null}
h -t 0.5 -s 0 -d 1 -p tcp -e 40 -c 1 -i 0 -a 1 -x {0.0 5.0 -1 ------- null}
r -t 0.51016 -s 0 -d 1 -p tcp -e 40 -c 1 -i 0 -a 1 -x {0.0 5.0 0 ------- null}
+ -t 0.51016 -s 1 -d 2 -p tcp -e 40 -c 1 -i 0 -a 1 -x {0.0 5.0 0 ------- null}
- -t 0.51016 -s 1 -d 2 -p tcp -e 40 -c 1 -i 0 -a 1 -x {0.0 5.0 0 ------- null}
h -t 0.51016 -s 1 -d 2 -p tcp -e 40 -c 1 -i 0 -a 1 -x {0.0 5.0 -1 ------- null}
r -t 0.53048 -s 1 -d 2 -p tcp -e 40 -c 1 -i 0 -a 1 -x {0.0 5.0 0 ------- null}
+ -t 0.53048 -s 2 -d 5 -p tcp -e 40 -c 1 -i 0 -a 1 -x {0.0 5.0 0 ------- null}
- -t 0.53048 -s 2 -d 5 -p tcp -e 40 -c 1 -i 0 -a 1 -x {0.0 5.0 0 ------- null}
h -t 0.53048 -s 2 -d 5 -p tcp -e 40 -c 1 -i 0 -a 1 -x {0.0 5.0 -1 ------- null}
r -t 0.54064 -s 2 -d 5 -p tcp -e 40 -c 1 -i 0 -a 1 -x {0.0 5.0 0 ------- null}
+ -t 0.54064 -s 5 -d 2 -p ack -e 40 -c 1 -i 1 -a 1 -x {5.0 0.0 0 ------- null}
- -t 0.54064 -s 5 -d 2 -p ack -e 40 -c 1 -i 1 -a 1 -x {5.0 0.0 0 ------- null}
h -t 0.54064 -s 5 -d 2 -p ack -e 40 -c 1 -i 1 -a 1 -x {5.0 0.0 -1 ------- null}
r -t 0.5508 -s 5 -d 2 -p ack -e 40 -c 1 -i 1 -a 1 -x {5.0 0.0 0 ------- null}
+ -t 0.5508 -s 2 -d 1 -p ack -e 40 -c 1 -i 1 -a 1 -x {5.0 0.0 0 ------- null}
- -t 0.5508 -s 2 -d 1 -p ack -e 40 -c 1 -i 1 -a 1 -x {5.0 0.0 0 ------- null}
h -t 0.5508 -s 2 -d 1 -p ack -e 40 -c 1 -i 1 -a 1 -x {5.0 0.0 -1 ------- null}
r -t 0.57112 -s 2 -d 1 -p ack -e 40 -c 1 -i 1 -a 1 -x {5.0 0.0 0 ------- null}
+ -t 0.57112 -s 1 -d 0 -p ack -e 40 -c 1 -i 1 -a 1 -x {5.0 0.0 0 ------- null}
- -t 0.57112 -s 1 -d 0 -p ack -e 40 -c 1 -i 1 -a 1 -x {5.0 0.0 0 ------- null}
h -t 0.57112 -s 1 -d 0 -p ack -e 40 -c 1 -i 1 -a 1 -x {5.0 0.0 -1 ------- null}
r -t 0.58128 -s 1 -d 0 -p ack -e 40 -c 1 -i 1 -a 1 -x {5.0 0.0 0 ------- null}
+ -t 0.58128 -s 0 -d 1 -p tcp -e 1040 -c 1 -i 2 -a 1 -x {0.0 5.0 1 ------- null}
- -t 0.58128 -s 0 -d 1 -p tcp -e 1040 -c 1 -i 2 -a 1 -x {0.0 5.0 1 ------- null}
h -t 0.58128 -s 0 -d 1 -p tcp -e 1040 -c 1 -i 2 -a 1 -x {0.0 5.0 -1 ------- null}
+ -t 0.58128 -s 0 -d 1 -p tcp -e 1040 -c 1 -i 3 -a 1 -x {0.0 5.0 2 ------- null}
- -t 0.58544 -s 0 -d 1 -p tcp -e 1040 -c 1 -i 3 -a 1 -x {0.0 5.0 2 ------- null}
h -t 0.58544 -s 0 -d 1 -p tcp -e 1040 -c 1 -i 3 -a 1 -x {0.0 5.0 -1 ------- null}
r -t 0.59544 -s 0 -d 1 -p tcp -e 1040 -c 1 -i 2 -a 1 -x {0.0 5.0 1 ------- null}
+ -t 0.59544 -s 1 -d 2 -p tcp -e 1040 -c 1 -i 2 -a 1 -x {0.0 5.0 1 ------- null}
- -t 0.59544 -s 1 -d 2 -p tcp -e 1040 -c 1 -i 2 -a 1 -x {0.0 5.0 1 ------- null}
h -t 0.59544 -s 1 -d 2 -p tcp -e 1040 -c 1 -i 2 -a 1 -x {0.0 5.0 -1 ------- null}
r -t 0.5996 -s 0 -d 1 -p tcp -e 1040 -c 1 -i 3 -a 1 -x {0.0 5.0 2 ------- null}
+ -t 0.5996 -s 1 -d 2 -p tcp -e 1040 -c 1 -i 3 -a 1 -x {0.0 5.0 2 ------- null}
- -t 0.60376 -s 1 -d 2 -p tcp -e 1040 -c 1 -i 3 -a 1 -x {0.0 5.0 2 ------- null}
h -t 0.60376 -s 1 -d 2 -p tcp -e 1040 -c 1 -i 3 -a 1 -x {0.0 5.0 -1 ------- null}
r -t 0.62376 -s 1 -d 2 -p tcp -e 1040 -c 1 -i 2 -a 1 -x {0.0 5.0 1 ------- null}
+ -t 0.62376 -s 2 -d 5 -p tcp -e 1040 -c 1 -i 2 -a 1 -x {0.0 5.0 1 ------- null}
- -t 0.62376 -s 2 -d 5 -p tcp -e 1040 -c 1 -i 2 -a 1 -x {0.0 5.0 1 ------- null}
h -t 0.62376 -s 2 -d 5 -p tcp -e 1040 -c 1 -i 2 -a 1 -x {0.0 5.0 -1 ------- null}
r -t 0.63208 -s 1 -d 2 -p tcp -e 1040 -c 1 -i 3 -a 1 -x {0.0 5.0 2 ------- null}
+ -t 0.63208 -s 2 -d 5 -p tcp -e 1040 -c 1 -i 3 -a 1 -x {0.0 5.0 2 ------- null}
- -t 0.63208 -s 2 -d 5 -p tcp -e 1040 -c 1 -i 3 -a 1 -x {0.0 5.0 2 ------- null}
h -t 0.63208 -s 2 -d 5 -p tcp -e 1040 -c 1 -i 3 -a 1 -x {0.0 5.0 -1 ------- null}
r -t 0.63792 -s 2 -d 5 -p tcp -e 1040 -c 1 -i 2 -a 1 -x {0.0 5.0 1 ------- null}
+ -t 0.63792 -s 5 -d 2 -p ack -e 40 -c 1 -i 4 -a 1 -x {5.0 0.0 1 ------- null}
- -t 0.63792 -s 5 -d 2 -p ack -e 40 -c 1 -i 4 -a 1 -x {5.0 0.0 1 ------- null}
h -t 0.63792 -s 5 -d 2 -p ack -e 40 -c 1 -i 4 -a 1 -x {5.0 0.0 -1 ------- null}
r -t 0.64624 -s 2 -d 5 -p tcp -e 1040 -c 1 -i 3 -a 1 -x {0.0 5.0 2 ------- null}
+ -t 0.64624 -s 5 -d 2 -p ack -e 40 -c 1 -i 5 -a 1 -x {5.0 0.0 2 ------- null}
- -t 0.64624 -s 5 -d 2 -p ack -e 40 -c 1 -i 5 -a 1 -x {5.0 0.0 2 ------- null}
h -t 0.64624 -s 5 -d 2 -p ack -e 40 -c 1 -i 5 -a 1 -x {5.0 0.0 -1 ------- null}
r -t 0.64808 -s 5 -d 2 -p ack -e 40 -c 1 -i 4 -a 1 -x {5.0 0.0 1 ------- null}
+ -t 0.64808 -s 2 -d 1 -p ack -e 40 -c 1 -i 4 -a 1 -x {5.0 0.0 1 ------- null}
- -t 0.64808 -s 2 -d 1 -p ack -e 40 -c 1 -i 4 -a 1 -x {5.0 0.0 1 ------- null}
h -t 0.64808 -s 2 -d 1 -p ack -e 40 -c 1 -i 4 -a 1 -x {5.0 0.0 -1 ------- null}
r -t 0.6564 -s 5 -d 2 -p ack -e 40 -c 1 -i 5 -a 1 -x {5.0 0.0 2 ------- null}
+ -t 0.6564 -s 2 -d 1 -p ack -e 40 -c 1 -i 5 -a 1 -x {5.0 0.0 2 ------- null}
- -t 0.6564 -s 2 -d 1 -p ack -e 40 -c 1 -i 5 -a 1 -x {5.0 0.0 2 ------- null}
h -t 0.6564 -s 2 -d 1 -p ack -e 40 -c 1 -i 5 -a 1 -x {5.0 0.0 -1 ------- null}
r -t 0.6684 -s 2 -d 1 -p ack -e 40 -c 1 -i 4 -a 1 -x {5.0 0.0 1 ------- null}
+ -t 0.6684 -s 1 -d 0 -p ack -e 40 -c 1 -i 4 -a 1 -x {5.0 0.0 1 ------- null}
- -t 0.6684 -s 1 -d 0 -p ack -e 40 -c 1 -i 4 -a 1 -x {5.0 0.0 1 ------- null}
h -t 0.6684 -s 1 -d 0 -p ack -e 40 -c 1 -i 4 -a 1 -x {5.0 0.0 -1 ------- null}
r -t 0.67672 -s 2 -d 1 -p ack -e 40 -c 1 -i 5 -a 1 -x {5.0 0.0 2 ------- null}
+ -t 0.67672 -s 1 -d 0 -p ack -e 40 -c 1 -i 5 -a 1 -x {5.0 0.0 2 ------- null}
- -t 0.67672 -s 1 -d 0 -p ack -e 40 -c 1 -i 5 -a 1 -x {5.0 0.0 2 ------- null}
h -t 0.67672 -s 1 -d 0 -p ack -e 40 -c 1 -i 5 -a 1 -x {5.0 0.0 -1 ------- null}
r -t 0.67856 -s 1 -d 0 -p ack -e 40 -c 1 -i 4 -a 1 -x {5.0 0.0 1 ------- null}
+ -t 0.67856 -s 0 -d 1 -p tcp -e 1040 -c 1 -i 6 -a 1 -x {0.0 5.0 3 ------- null}
- -t 0.67856 -s 0 -d 1 -p tcp -e 1040 -c 1 -i 6 -a 1 -x {0.0 5.0 3 ------- null}
h -t 0.67856 -s 0 -d 1 -p tcp -e 1040 -c 1 -i 6 -a 1 -x {0.0 5.0 -1 ------- null}
+ -t 0.67856 -s 0 -d 1 -p tcp -e 1040 -c 1 -i 7 -a 1 -x {0.0 5.0 4 ------- null}
- -t 0.68272 -s 0 -d 1 -p tcp -e 1040 -c 1 -i 7 -a 1 -x {0.0 5.0 4 ------- null}
h -t 0.68272 -s 0 -d 1 -p tcp -e 1040 -c 1 -i 7 -a 1 -x {0.0 5.0 -1 ------- null}
r -t 0.68688 -s 1 -d 0 -p ack -e 40 -c 1 -i 5 -a 1 -x {5.0 0.0 2 ------- null}
+ -t 0.68688 -s 0 -d 1 -p tcp -e 1040 -c 1 -i 8 -a 1 -x {0.0 5.0 5 ------- null}
+ -t 0.68688 -s 0 -d 1 -p tcp -e 1040 -c 1 -i 9 -a 1 -x {0.0 5.0 6 ------- null}
- -t 0.68688 -s 0 -d 1 -p tcp -e 1040 -c 1 -i 8 -a 1 -x {0.0 5.0 5 ------- null}
h -t 0.68688 -s 0 -d 1 -p tcp -e 1040 -c 1 -i 8 -a 1 -x {0.0 5.0 -1 ------- null}
- -t 0.69104 -s 0 -d 1 -p tcp -e 1040 -c 1 -i 9 -a 1 -x {0.0 5.0 6 ------- null}
h -t 0.69104 -s 0 -d 1 -p tcp -e 1040 -c 1 -i 9 -a 1 -x {0.0 5.0 -1 ------- null}
r -t 0.69272 -s 0 -d 1 -p tcp -e 1040 -c 1 -i 6 -a 1 -x {0.0 5.0 3 ------- null}
+ -t 0.69272 -s 1 -d 2 -p tcp -e 1040 -c 1 -i 6 -a 1 -x {0.0 5.0 3 ------- null}
- -t 0.69272 -s 1 -d 2 -p tcp -e 1040 -c 1 -i 6 -a 1 -x {0.0 5.0 3 ------- null}
h -t 0.69272 -s 1 -d 2 -p tcp -e 1040 -c 1 -i 6 -a 1 -x {0.0 5.0 -1 ------- null}
r -t 0.69688 -s 0 -d 1 -p tcp -e 1040 -c 1 -i 7 -a 1 -x {0.0 5.0 4 ------- null}
+ -t 0.69688 -s 1 -d 2 -p tcp -e 1040 -c 1 -i 7 -a 1 -x {0.0 5.0 4 ------- null}
- -t 0.70104 -s 1 -d 2 -p tcp -e 1040 -c 1 -i 7 -a 1 -x {0.0 5.0 4 ------- null}
h -t 0.70104 -s 1 -d 2 -p tcp -e 1040 -c 1 -i 7 -a 1 -x {0.0 5.0 -1 ------- null}
r -t 0.70104 -s 0 -d 1 -p tcp -e 1040 -c 1 -i 8 -a 1 -x {0.0 5.0 5 ------- null}
+ -t 0.70104 -s 1 -d 2 -p tcp -e 1040 -c 1 -i 8 -a 1 -x {0.0 5.0 5 ------- null}
r -t 0.7052 -s 0 -d 1 -p tcp -e 1040 -c 1 -i 9 -a 1 -x {0.0 5.0 6 ------- null}
+ -t 0.7052 -s 1 -d 2 -p tcp -e 1040 -c 1 -i 9 -a 1 -x {0.0 5.0 6 ------- null}
- -t 0.70936 -s 1 -d 2 -p tcp -e 1040 -c 1 -i 8 -a 1 -x {0.0 5.0 5 ------- null}
h -t 0.70936 -s 1 -d 2 -p tcp -e 1040 -c 1 -i 8 -a 1 -x {0.0 5.0 -1 ------- null}
- -t 0.71768 -s 1 -d 2 -p tcp -e 1040 -c 1 -i 9 -a 1 -x {0.0 5.0 6 ------- null}
h -t 0.71768 -s 1 -d 2 -p tcp -e 1040 -c 1 -i 9 -a 1 -x {0.0 5.0 -1 ------- null}
r -t 0.72104 -s 1 -d 2 -p tcp -e 1040 -c 1 -i 6 -a 1 -x {0.0 5.0 3 ------- null}
+ -t 0.72104 -s 2 -d 5 -p tcp -e 1040 -c 1 -i 6 -a 1 -x {0.0 5.0 3 ------- null}
- -t 0.72104 -s 2 -d 5 -p tcp -e 1040 -c 1 -i 6 -a 1 -x {0.0 5.0 3 ------- null}
h -t 0.72104 -s 2 -d 5 -p tcp -e 1040 -c 1 -i 6 -a 1 -x {0.0 5.0 -1 ------- null}
r -t 0.72936 -s 1 -d 2 -p tcp -e 1040 -c 1 -i 7 -a 1 -x {0.0 5.0 4 ------- null}
+ -t 0.72936 -s 2 -d 5 -p tcp -e 1040 -c 1 -i 7 -a 1 -x {0.0 5.0 4 ------- null}
- -t 0.72936 -s 2 -d 5 -p tcp -e 1040 -c 1 -i 7 -a 1 -x {0.0 5.0 4 ------- null}
h -t 0.72936 -s 2 -d 5 -p tcp -e 1040 -c 1 -i 7 -a 1 -x {0.0 5.0 -1 ------- null}
r -t 0.7352 -s 2 -d 5 -p tcp -e 1040 -c 1 -i 6 -a 1 -x {0.0 5.0 3 ------- null}
+ -t 0.7352 -s 5 -d 2 -p ack -e 40 -c 1 -i 10 -a 1 -x {5.0 0.0 3 ------- null}
- -t 0.7352 -s 5 -d 2 -p ack -e 40 -c 1 -i 10 -a 1 -x {5.0 0.0 3 ------- null}
h -t 0.7352 -s 5 -d 2 -p ack -e 40 -c 1 -i 10 -a 1 -x {5.0 0.0 -1 ------- null}
r -t 0.73768 -s 1 -d 2 -p tcp -e 1040 -c 1 -i 8 -a 1 -x {0.0 5.0 5 ------- null}
+ -t 0.73768 -s 2 -d 5 -p tcp -e 1040 -c 1 -i 8 -a 1 -x {0.0 5.0 5 ------- null}
- -t 0.73768 -s 2 -d 5 -p tcp -e 1040 -c 1 -i 8 -a 1 -x {0.0 5.0 5 ------- null}
h -t 0.73768 -s 2 -d 5 -p tcp -e 1040 -c 1 -i 8 -a 1 -x {0.0 5.0 -1 ------- null}
r -t 0.74352 -s 2 -d 5 -p tcp -e 1040 -c 1 -i 7 -a 1 -x {0.0 5.0 4 ------- null}
+ -t 0.74352 -s 5 -d 2 -p ack -e 40 -c 1 -i 11 -a 1 -x {5.0 0.0 4 ------- null}
- -t 0.74352 -s 5 -d 2 -p ack -e 40 -c 1 -i 11 -a 1 -x {5.0 0.0 4 ------- null}
h -t 0.74352 -s 5 -d 2 -p ack -e 40 -c 1 -i 11 -a 1 -x {5.0 0.0 -1 ------- null}
r -t 0.745359999999999 -s 5 -d 2 -p ack -e 40 -c 1 -i 10 -a 1 -x {5.0 0.0 3 ------- null}
+ -t 0.745359999999999 -s 2 -d 1 -p ack -e 40 -c 1 -i 10 -a 1 -x {5.0 0.0 3 ------- null}
- -t 0.745359999999999 -s 2 -d 1 -p ack -e 40 -c 1 -i 10 -a 1 -x {5.0 0.0 3 ------- null}
h -t 0.745359999999999 -s 2 -d 1 -p ack -e 40 -c 1 -i 10 -a 1 -x {5.0 0.0 -1 ------- null}
r -t 0.746 -s 1 -d 2 -p tcp -e 1040 -c 1 -i 9 -a 1 -x {0.0 5.0 6 ------- null}
+ -t 0.746 -s 2 -d 5 -p tcp -e 1040 -c 1 -i 9 -a 1 -x {0.0 5.0 6 ------- null}
- -t 0.746 -s 2 -d 5 -p tcp -e 1040 -c 1 -i 9 -a 1 -x {0.0 5.0 6 ------- null}
h -t 0.746 -s 2 -d 5 -p tcp -e 1040 -c 1 -i 9 -a 1 -x {0.0 5.0 -1 ------- null}
r -t 0.75184 -s 2 -d 5 -p tcp -e 1040 -c 1 -i 8 -a 1 -x {0.0 5.0 5 ------- null}
+ -t 0.75184 -s 5 -d 2 -p ack -e 40 -c 1 -i 12 -a 1 -x {5.0 0.0 5 ------- null}
- -t 0.75184 -s 5 -d 2 -p ack -e 40 -c 1 -i 12 -a 1 -x {5.0 0.0 5 ------- null}
h -t 0.75184 -s 5 -d 2 -p ack -e 40 -c 1 -i 12 -a 1 -x {5.0 0.0 -1 ------- null}
r -t 0.753679999999999 -s 5 -d 2 -p ack -e 40 -c 1 -i 11 -a 1 -x {5.0 0.0 4 ------- null}
+ -t 0.753679999999999 -s 2 -d 1 -p ack -e 40 -c 1 -i 11 -a 1 -x {5.0 0.0 4 ------- null}
- -t 0.753679999999999 -s 2 -d 1 -p ack -e 40 -c 1 -i 11 -a 1 -x {5.0 0.0 4 ------- null}
h -t 0.753679999999999 -s 2 -d 1 -p ack -e 40 -c 1 -i 11 -a 1 -x {5.0 0.0 -1 ------- null}
r -t 0.76016 -s 2 -d 5 -p tcp -e 1040 -c 1 -i 9 -a 1 -x {0.0 5.0 6 ------- null}
+ -t 0.76016 -s 5 -d 2 -p ack -e 40 -c 1 -i 13 -a 1 -x {5.0 0.0 6 ------- null}
- -t 0.76016 -s 5 -d 2 -p ack -e 40 -c 1 -i 13 -a 1 -x {5.0 0.0 6 ------- null}
h -t 0.76016 -s 5 -d 2 -p ack -e 40 -c 1 -i 13 -a 1 -x {5.0 0.0 -1 ------- null}
r -t 0.761999999999999 -s 5 -d 2 -p ack -e 40 -c 1 -i 12 -a 1 -x {5.0 0.0 5 ------- null}
+ -t 0.761999999999999 -s 2 -d 1 -p ack -e 40 -c 1 -i 12 -a 1 -x {5.0 0.0 5 ------- null}
- -t 0.761999999999999 -s 2 -d 1 -p ack -e 40 -c 1 -i 12 -a 1 -x {5.0 0.0 5 ------- null}
h -t 0.761999999999999 -s 2 -d 1 -p ack -e 40 -c 1 -i 12 -a 1 -x {5.0 0.0 -1 ------- null}
r -t 0.765679999999999 -s 2 -d 1 -p ack -e 40 -c 1 -i 10 -a 1 -x {5.0 0.0 3 ------- null}
+ -t 0.765679999999999 -s 1 -d 0 -p ack -e 40 -c 1 -i 10 -a 1 -x {5.0 0.0 3 ------- null}
- -t 0.765679999999999 -s 1 -d 0 -p ack -e 40 -c 1 -i 10 -a 1 -x {5.0 0.0 3 ------- null}
h -t 0.765679999999999 -s 1 -d 0 -p ack -e 40 -c 1 -i 10 -a 1 -x {5.0 0.0 -1 ------- null}
r -t 0.770319999999999 -s 5 -d 2 -p ack -e 40 -c 1 -i 13 -a 1 -x {5.0 0.0 6 ------- null}
+ -t 0.770319999999999 -s 2 -d 1 -p ack -e 40 -c 1 -i 13 -a 1 -x {5.0 0.0 6 ------- null}
- -t 0.770319999999999 -s 2 -d 1 -p ack -e 40 -c 1 -i 13 -a 1 -x {5.0 0.0 6 ------- null}
h -t 0.770319999999999 -s 2 -d 1 -p ack -e 40 -c 1 -i 13 -a 1 -x {5.0 0.0 -1 ------- null}
r -t 0.773999999999999 -s 2 -d 1 -p ack -e 40 -c 1 -i 11 -a 1 -x {5.0 0.0 4 ------- null}
+ -t 0.773999999999999 -s 1 -d 0 -p ack -e 40 -c 1 -i 11 -a 1 -x {5.0 0.0 4 ------- null}
- -t 0.773999999999999 -s 1 -d 0 -p ack -e 40 -c 1 -i 11 -a 1 -x {5.0 0.0 4 ------- null}
h -t 0.773999999999999 -s 1 -d 0 -p ack -e 40 -c 1 -i 11 -a 1 -x {5.0 0.0 -1 ------- null}
r -t 0.775839999999999 -s 1 -d 0 -p ack -e 40 -c 1 -i 10 -a 1 -x {5.0 0.0 3 ------- null}
+ -t 0.775839999999999 -s 0 -d 1 -p tcp -e 1040 -c 1 -i 14 -a 1 -x {0.0 5.0 7 ------- null}
- -t 0.775839999999999 -s 0 -d 1 -p tcp -e 1040 -c 1 -i 14 -a 1 -x {0.0 5.0 7 ------- null}
h -t 0.775839999999999 -s 0 -d 1 -p tcp -e 1040 -c 1 -i 14 -a 1 -x {0.0 5.0 -1 ------- null}
+ -t 0.775839999999999 -s 0 -d 1 -p tcp -e 1040 -c 1 -i 15 -a 1 -x {0.0 5.0 8 ------- null}
- -t 0.779999999999999 -s 0 -d 1 -p tcp -e 1040 -c 1 -i 15 -a 1 -x {0.0 5.0 8 ------- null}
h -t 0.779999999999999 -s 0 -d 1 -p tcp -e 1040 -c 1 -i 15 -a 1 -x {0.0 5.0 -1 ------- null}
r -t 0.782319999999999 -s 2 -d 1 -p ack -e 40 -c 1 -i 12 -a 1 -x {5.0 0.0 5 ------- null}
+ -t 0.782319999999999 -s 1 -d 0 -p ack -e 40 -c 1 -i 12 -a 1 -x {5.0 0.0 5 ------- null}
- -t 0.782319999999999 -s 1 -d 0 -p ack -e 40 -c 1 -i 12 -a 1 -x {5.0 0.0 5 ------- null}
h -t 0.782319999999999 -s 1 -d 0 -p ack -e 40 -c 1 -i 12 -a 1 -x {5.0 0.0 -1 ------- null}
r -t 0.784159999999999 -s 1 -d 0 -p ack -e 40 -c 1 -i 11 -a 1 -x {5.0 0.0 4 ------- null}
+ -t 0.784159999999999 -s 0 -d 1 -p tcp -e 1040 -c 1 -i 16 -a 1 -x {0.0 5.0 9 ------- null}
+ -t 0.784159999999999 -s 0 -d 1 -p tcp -e 1040 -c 1 -i 17 -a 1 -x {0.0 5.0 10 ------- null}
- -t 0.78416 -s 0 -d 1 -p tcp -e 1040 -c 1 -i 16 -a 1 -x {0.0 5.0 9 ------- null}
h -t 0.78416 -s 0 -d 1 -p tcp -e 1040 -c 1 -i 16 -a 1 -x {0.0 5.0 -1 ------- null}
- -t 0.78832 -s 0 -d 1 -p tcp -e 1040 -c 1 -i 17 -a 1 -x {0.0 5.0 10 ------- null}
h -t 0.78832 -s 0 -d 1 -p tcp -e 1040 -c 1 -i 17 -a 1 -x {0.0 5.0 -1 ------- null}
r -t 0.789999999999999 -s 0 -d 1 -p tcp -e 1040 -c 1 -i 14 -a 1 -x {0.0 5.0 7 ------- null}
+ -t 0.789999999999999 -s 1 -d 2 -p tcp -e 1040 -c 1 -i 14 -a 1 -x {0.0 5.0 7 ------- null}
- -t 0.789999999999999 -s 1 -d 2 -p tcp -e 1040 -c 1 -i 14 -a 1 -x {0.0 5.0 7 ------- null}
h -t 0.789999999999999 -s 1 -d 2 -p tcp -e 1040 -c 1 -i 14 -a 1 -x {0.0 5.0 -1 ------- null}
r -t 0.790639999999999 -s 2 -d 1 -p ack -e 40 -c 1 -i 13 -a 1 -x {5.0 0.0 6 ------- null}
+ -t 0.790639999999999 -s 1 -d 0 -p ack -e 40 -c 1 -i 13 -a 1 -x {5.0 0.0 6 ------- null}
- -t 0.790639999999999 -s 1 -d 0 -p ack -e 40 -c 1 -i 13 -a 1 -x {5.0 0.0 6 ------- null}
h -t 0.790639999999999 -s 1 -d 0 -p ack -e 40 -c 1 -i 13 -a 1 -x {5.0 0.0 -1 ------- null}
r -t 0.792479999999999 -s 1 -d 0 -p ack -e 40 -c 1 -i 12 -a 1 -x {5.0 0.0 5 ------- null}
+ -t 0.792479999999999 -s 0 -d 1 -p tcp -e 1040 -c 1 -i 18 -a 1 -x {0.0 5.0 11 ------- null}
+ -t 0.792479999999999 -s 0 -d 1 -p tcp -e 1040 -c 1 -i 19 -a 1 -x {0.0 5.0 12 ------- null}
- -t 0.79248 -s 0 -d 1 -p tcp -e 1040 -c 1 -i 18 -a 1 -x {0.0 5.0 11 ------- null}
h -t 0.79248 -s 0 -d 1 -p tcp -e 1040 -c 1 -i 18 -a 1 -x {0.0 5.0 -1 ------- null}
r -t 0.794159999999999 -s 0 -d 1 -p tcp -e 1040 -c 1 -i 15 -a 1 -x {0.0 5.0 8 ------- null}
+ -t 0.794159999999999 -s 1 -d 2 -p tcp -e 1040 -c 1 -i 15 -a 1 -x {0.0 5.0 8 ------- null}
- -t 0.79664 -s 0 -d 1 -p tcp -e 1040 -c 1 -i 19 -a 1 -x {0.0 5.0 12 ------- null}
h -t 0.79664 -s 0 -d 1 -p tcp -e 1040 -c 1 -i 19 -a 1 -x {0.0 5.0 -1 ------- null}
- -t 0.798319999999999 -s 1 -d 2 -p tcp -e 1040 -c 1 -i 15 -a 1 -x {0.0 5.0 8 ------- null}
h -t 0.798319999999999 -s 1 -d 2 -p tcp -e 1040 -c 1 -i 15 -a 1 -x {0.0 5.0 -1 ------- null}
r -t 0.798319999999999 -s 0 -d 1 -p tcp -e 1040 -c 1 -i 16 -a 1 -x {0.0 5.0 9 ------- null}
+ -t 0.798319999999999 -s 1 -d 2 -p tcp -e 1040 -c 1 -i 16 -a 1 -x {0.0 5.0 9 ------- null}
r -t 0.800799999999999 -s 1 -d 0 -p ack -e 40 -c 1 -i 13 -a 1 -x {5.0 0.0 6 ------- null}
+ -t 0.800799999999999 -s 0 -d 1 -p tcp -e 1040 -c 1 -i 20 -a 1 -x {0.0 5.0 13 ------- null}
+ -t 0.800799999999999 -s 0 -d 1 -p tcp -e 1040 -c 1 -i 21 -a 1 -x {0.0 5.0 14 ------- null}
- -t 0.8008 -s 0 -d 1 -p tcp -e 1040 -c 1 -i 20 -a 1 -x {0.0 5.0 13 ------- null}
h -t 0.8008 -s 0 -d 1 -p tcp -e 1040 -c 1 -i 20 -a 1 -x {0.0 5.0 -1 ------- null}
r -t 0.80248 -s 0 -d 1 -p tcp -e 1040 -c 1 -i 17 -a 1 -x {0.0 5.0 10 ------- null}
+ -t 0.80248 -s 1 -d 2 -p tcp -e 1040 -c 1 -i 17 -a 1 -x {0.0 5.0 10 ------- null}
- -t 0.80496 -s 0 -d 1 -p tcp -e 1040 -c 1 -i 21 -a 1 -x {0.0 5.0 14 ------- null}
h -t 0.80496 -s 0 -d 1 -p tcp -e 1040 -c 1 -i 21 -a 1 -x {0.0 5.0 -1 ------- null}
- -t 0.806639999999999 -s 1 -d 2 -p tcp -e 1040 -c 1 -i 16 -a 1 -x {0.0 5.0 9 ------- null}
h -t 0.806639999999999 -s 1 -d 2 -p tcp -e 1040 -c 1 -i 16 -a 1 -x {0.0 5.0 -1 ------- null}
r -t 0.80664 -s 0 -d 1 -p tcp -e 1040 -c 1 -i 18 -a 1 -x {0.0 5.0 11 ------- null}
+ -t 0.80664 -s 1 -d 2 -p tcp -e 1040 -c 1 -i 18 -a 1 -x {0.0 5.0 11 ------- null}
r -t 0.8108 -s 0 -d 1 -p tcp -e 1040 -c 1 -i 19 -a 1 -x {0.0 5.0 12 ------- null}
+ -t 0.8108 -s 1 -d 2 -p tcp -e 1040 -c 1 -i 19 -a 1 -x {0.0 5.0 12 ------- null}
- -t 0.814959999999999 -s 1 -d 2 -p tcp -e 1040 -c 1 -i 17 -a 1 -x {0.0 5.0 10 ------- null}
h -t 0.814959999999999 -s 1 -d 2 -p tcp -e 1040 -c 1 -i 17 -a 1 -x {0.0 5.0 -1 ------- null}
r -t 0.81496 -s 0 -d 1 -p tcp -e 1040 -c 1 -i 20 -a 1 -x {0.0 5.0 13 ------- null}
+ -t 0.81496 -s 1 -d 2 -p tcp -e 1040 -c 1 -i 20 -a 1 -x {0.0 5.0 13 ------- null}
r -t 0.818319999999999 -s 1 -d 2 -p tcp -e 1040 -c 1 -i 14 -a 1 -x {0.0 5.0 7 ------- null}
+ -t 0.818319999999999 -s 2 -d 5 -p tcp -e 1040 -c 1 -i 14 -a 1 -x {0.0 5.0 7 ------- null}
- -t 0.818319999999999 -s 2 -d 5 -p tcp -e 1040 -c 1 -i 14 -a 1 -x {0.0 5.0 7 ------- null}
h -t 0.818319999999999 -s 2 -d 5 -p tcp -e 1040 -c 1 -i 14 -a 1 -x {0.0 5.0 -1 ------- null}
r -t 0.81912 -s 0 -d 1 -p tcp -e 1040 -c 1 -i 21 -a 1 -x {0.0 5.0 14 ------- null}
+ -t 0.81912 -s 1 -d 2 -p tcp -e 1040 -c 1 -i 21 -a 1 -x {0.0 5.0 14 ------- null}
- -t 0.823279999999999 -s 1 -d 2 -p tcp -e 1040 -c 1 -i 18 -a 1 -x {0.0 5.0 11 ------- null}
h -t 0.823279999999999 -s 1 -d 2 -p tcp -e 1040 -c 1 -i 18 -a 1 -x {0.0 5.0 -1 ------- null}
r -t 0.826639999999999 -s 1 -d 2 -p tcp -e 1040 -c 1 -i 15 -a 1 -x {0.0 5.0 8 ------- null}
+ -t 0.826639999999999 -s 2 -d 5 -p tcp -e 1040 -c 1 -i 15 -a 1 -x {0.0 5.0 8 ------- null}
- -t 0.826639999999999 -s 2 -d 5 -p tcp -e 1040 -c 1 -i 15 -a 1 -x {0.0 5.0 8 ------- null}
h -t 0.826639999999999 -s 2 -d 5 -p tcp -e 1040 -c 1 -i 15 -a 1 -x {0.0 5.0 -1 ------- null}
- -t 0.831599999999999 -s 1 -d 2 -p tcp -e 1040 -c 1 -i 19 -a 1 -x {0.0 5.0 12 ------- null}
h -t 0.831599999999999 -s 1 -d 2 -p tcp -e 1040 -c 1 -i 19 -a 1 -x {0.0 5.0 -1 ------- null}
r -t 0.832479999999999 -s 2 -d 5 -p tcp -e 1040 -c 1 -i 14 -a 1 -x {0.0 5.0 7 ------- null}
+ -t 0.832479999999999 -s 5 -d 2 -p ack -e 40 -c 1 -i 22 -a 1 -x {5.0 0.0 7 ------- null}
- -t 0.832479999999999 -s 5 -d 2 -p ack -e 40 -c 1 -i 22 -a 1 -x {5.0 0.0 7 ------- null}
h -t 0.832479999999999 -s 5 -d 2 -p ack -e 40 -c 1 -i 22 -a 1 -x {5.0 0.0 -1 ------- null}
r -t 0.834959999999999 -s 1 -d 2 -p tcp -e 1040 -c 1 -i 16 -a 1 -x {0.0 5.0 9 ------- null}
+ -t 0.834959999999999 -s 2 -d 5 -p tcp -e 1040 -c 1 -i 16 -a 1 -x {0.0 5.0 9 ------- null}
- -t 0.834959999999999 -s 2 -d 5 -p tcp -e 1040 -c 1 -i 16 -a 1 -x {0.0 5.0 9 ------- null}
h -t 0.834959999999999 -s 2 -d 5 -p tcp -e 1040 -c 1 -i 16 -a 1 -x {0.0 5.0 -1 ------- null}
- -t 0.839919999999999 -s 1 -d 2 -p tcp -e 1040 -c 1 -i 20 -a 1 -x {0.0 5.0 13 ------- null}
h -t 0.839919999999999 -s 1 -d 2 -p tcp -e 1040 -c 1 -i 20 -a 1 -x {0.0 5.0 -1 ------- null}
r -t 0.840799999999999 -s 2 -d 5 -p tcp -e 1040 -c 1 -i 15 -a 1 -x {0.0 5.0 8 ------- null}
+ -t 0.840799999999999 -s 5 -d 2 -p ack -e 40 -c 1 -i 23 -a 1 -x {5.0 0.0 8 ------- null}
- -t 0.840799999999999 -s 5 -d 2 -p ack -e 40 -c 1 -i 23 -a 1 -x {5.0 0.0 8 ------- null}
h -t 0.840799999999999 -s 5 -d 2 -p ack -e 40 -c 1 -i 23 -a 1 -x {5.0 0.0 -1 ------- null}
r -t 0.842639999999999 -s 5 -d 2 -p ack -e 40 -c 1 -i 22 -a 1 -x {5.0 0.0 7 ------- null}
+ -t 0.842639999999999 -s 2 -d 1 -p ack -e 40 -c 1 -i 22 -a 1 -x {5.0 0.0 7 ------- null}
- -t 0.842639999999999 -s 2 -d 1 -p ack -e 40 -c 1 -i 22 -a 1 -x {5.0 0.0 7 ------- null}
h -t 0.842639999999999 -s 2 -d 1 -p ack -e 40 -c 1 -i 22 -a 1 -x {5.0 0.0 -1 ------- null}
r -t 0.843279999999999 -s 1 -d 2 -p tcp -e 1040 -c 1 -i 17 -a 1 -x {0.0 5.0 10 ------- null}
+ -t 0.843279999999999 -s 2 -d 5 -p tcp -e 1040 -c 1 -i 17 -a 1 -x {0.0 5.0 10 ------- null}
- -t 0.843279999999999 -s 2 -d 5 -p tcp -e 1040 -c 1 -i 17 -a 1 -x {0.0 5.0 10 ------- null}
h -t 0.843279999999999 -s 2 -d 5 -p tcp -e 1040 -c 1 -i 17 -a 1 -x {0.0 5.0 -1 ------- null}
- -t 0.848239999999999 -s 1 -d 2 -p tcp -e 1040 -c 1 -i 21 -a 1 -x {0.0 5.0 14 ------- null}
h -t 0.848239999999999 -s 1 -d 2 -p tcp -e 1040 -c 1 -i 21 -a 1 -x {0.0 5.0 -1 ------- null}
r -t 0.849119999999999 -s 2 -d 5 -p tcp -e 1040 -c 1 -i 16 -a 1 -x {0.0 5.0 9 ------- null}
+ -t 0.849119999999999 -s 5 -d 2 -p ack -e 40 -c 1 -i 24 -a 1 -x {5.0 0.0 9 ------- null}
- -t 0.849119999999999 -s 5 -d 2 -p ack -e 40 -c 1 -i 24 -a 1 -x {5.0 0.0 9 ------- null}
h -t 0.849119999999999 -s 5 -d 2 -p ack -e 40 -c 1 -i 24 -a 1 -x {5.0 0.0 -1 ------- null}
r -t 0.850959999999999 -s 5 -d 2 -p ack -e 40 -c 1 -i 23 -a 1 -x {5.0 0.0 8 ------- null}
+ -t 0.850959999999999 -s 2 -d 1 -p ack -e 40 -c 1 -i 23 -a 1 -x {5.0 0.0 8 ------- null}
- -t 0.850959999999999 -s 2 -d 1 -p ack -e 40 -c 1 -i 23 -a 1 -x {5.0 0.0 8 ------- null}
h -t 0.850959999999999 -s 2 -d 1 -p ack -e 40 -c 1 -i 23 -a 1 -x {5.0 0.0 -1 ------- null}
r -t 0.851599999999999 -s 1 -d 2 -p tcp -e 1040 -c 1 -i 18 -a 1 -x {0.0 5.0 11 ------- null}
+ -t 0.851599999999999 -s 2 -d 5 -p tcp -e 1040 -c 1 -i 18 -a 1 -x {0.0 5.0 11 ------- null}
- -t 0.851599999999999 -s 2 -d 5 -p tcp -e 1040 -c 1 -i 18 -a 1 -x {0.0 5.0 11 ------- null}
h -t 0.851599999999999 -s 2 -d 5 -p tcp -e 1040 -c 1 -i 18 -a 1 -x {0.0 5.0 -1 ------- null}
r -t 0.857439999999999 -s 2 -d 5 -p tcp -e 1040 -c 1 -i 17 -a 1 -x {0.0 5.0 10 ------- null}
+ -t 0.857439999999999 -s 5 -d 2 -p ack -e 40 -c 1 -i 25 -a 1 -x {5.0 0.0 10 ------- null}
- -t 0.857439999999999 -s 5 -d 2 -p ack -e 40 -c 1 -i 25 -a 1 -x {5.0 0.0 10 ------- null}
h -t 0.857439999999999 -s 5 -d 2 -p ack -e 40 -c 1 -i 25 -a 1 -x {5.0 0.0 -1 ------- null}
r -t 0.859279999999999 -s 5 -d 2 -p ack -e 40 -c 1 -i 24 -a 1 -x {5.0 0.0 9 ------- null}
+ -t 0.859279999999999 -s 2 -d 1 -p ack -e 40 -c 1 -i 24 -a 1 -x {5.0 0.0 9 ------- null}
- -t 0.859279999999999 -s 2 -d 1 -p ack -e 40 -c 1 -i 24 -a 1 -x {5.0 0.0 9 ------- null}
h -t 0.859279999999999 -s 2 -d 1 -p ack -e 40 -c 1 -i 24 -a 1 -x {5.0 0.0 -1 ------- null}
r -t 0.859919999999999 -s 1 -d 2 -p tcp -e 1040 -c 1 -i 19 -a 1 -x {0.0 5.0 12 ------- null}
+ -t 0.859919999999999 -s 2 -d 5 -p tcp -e 1040 -c 1 -i 19 -a 1 -x {0.0 5.0 12 ------- null}
- -t 0.859919999999999 -s 2 -d 5 -p tcp -e 1040 -c 1 -i 19 -a 1 -x {0.0 5.0 12 ------- null}
h -t 0.859919999999999 -s 2 -d 5 -p tcp -e 1040 -c 1 -i 19 -a 1 -x {0.0 5.0 -1 ------- null}
r -t 0.862959999999999 -s 2 -d 1 -p ack -e 40 -c 1 -i 22 -a 1 -x {5.0 0.0 7 ------- null}
+ -t 0.862959999999999 -s 1 -d 0 -p ack -e 40 -c 1 -i 22 -a 1 -x {5.0 0.0 7 ------- null}
- -t 0.862959999999999 -s 1 -d 0 -p ack -e 40 -c 1 -i 22 -a 1 -x {5.0 0.0 7 ------- null}
h -t 0.862959999999999 -s 1 -d 0 -p ack -e 40 -c 1 -i 22 -a 1 -x {5.0 0.0 -1 ------- null}
r -t 0.865759999999999 -s 2 -d 5 -p tcp -e 1040 -c 1 -i 18 -a 1 -x {0.0 5.0 11 ------- null}
+ -t 0.865759999999999 -s 5 -d 2 -p ack -e 40 -c 1 -i 26 -a 1 -x {5.0 0.0 11 ------- null}
- -t 0.865759999999999 -s 5 -d 2 -p ack -e 40 -c 1 -i 26 -a 1 -x {5.0 0.0 11 ------- null}
h -t 0.865759999999999 -s 5 -d 2 -p ack -e 40 -c 1 -i 26 -a 1 -x {5.0 0.0 -1 ------- null}
r -t 0.867599999999999 -s 5 -d 2 -p ack -e 40 -c 1 -i 25 -a 1 -x {5.0 0.0 10 ------- null}
+ -t 0.867599999999999 -s 2 -d 1 -p ack -e 40 -c 1 -i 25 -a 1 -x {5.0 0.0 10 ------- null}
- -t 0.867599999999999 -s 2 -d 1 -p ack -e 40 -c 1 -i 25 -a 1 -x {5.0 0.0 10 ------- null}
h -t 0.867599999999999 -s 2 -d 1 -p ack -e 40 -c 1 -i 25 -a 1 -x {5.0 0.0 -1 ------- null}
r -t 0.868239999999999 -s 1 -d 2 -p tcp -e 1040 -c 1 -i 20 -a 1 -x {0.0 5.0 13 ------- null}
+ -t 0.868239999999999 -s 2 -d 5 -p tcp -e 1040 -c 1 -i 20 -a 1 -x {0.0 5.0 13 ------- null}
- -t 0.868239999999999 -s 2 -d 5 -p tcp -e 1040 -c 1 -i 20 -a 1 -x {0.0 5.0 13 ------- null}
h -t 0.868239999999999 -s 2 -d 5 -p tcp -e 1040 -c 1 -i 20 -a 1 -x {0.0 5.0 -1 ------- null}
r -t 0.871279999999999 -s 2 -d 1 -p ack -e 40 -c 1 -i 23 -a 1 -x {5.0 0.0 8 ------- null}
+ -t 0.871279999999999 -s 1 -d 0 -p ack -e 40 -c 1 -i 23 -a 1 -x {5.0 0.0 8 ------- null}
- -t 0.871279999999999 -s 1 -d 0 -p ack -e 40 -c 1 -i 23 -a 1 -x {5.0 0.0 8 ------- null}
h -t 0.871279999999999 -s 1 -d 0 -p ack -e 40 -c 1 -i 23 -a 1 -x {5.0 0.0 -1 ------- null}
r -t 0.873119999999999 -s 1 -d 0 -p ack -e 40 -c 1 -i 22 -a 1 -x {5.0 0.0 7 ------- null}
+ -t 0.873119999999999 -s 0 -d 1 -p tcp -e 1040 -c 1 -i 27 -a 1 -x {0.0 5.0 15 ------- null}
- -t 0.873119999999999 -s 0 -d 1 -p tcp -e 1040 -c 1 -i 27 -a 1 -x {0.0 5.0 15 ------- null}
h -t 0.873119999999999 -s 0 -d 1 -p tcp -e 1040 -c 1 -i 27 -a 1 -x {0.0 5.0 -1 ------- null}
+ -t 0.873119999999999 -s 0 -d 1 -p tcp -e 1040 -c 1 -i 28 -a 1 -x {0.0 5.0 16 ------- null}
r -t 0.874079999999999 -s 2 -d 5 -p tcp -e 1040 -c 1 -i 19 -a 1 -x {0.0 5.0 12 ------- null}
+ -t 0.874079999999999 -s 5 -d 2 -p ack -e 40 -c 1 -i 29 -a 1 -x {5.0 0.0 12 ------- null}
- -t 0.874079999999999 -s 5 -d 2 -p ack -e 40 -c 1 -i 29 -a 1 -x {5.0 0.0 12 ------- null}
h -t 0.874079999999999 -s 5 -d 2 -p ack -e 40 -c 1 -i 29 -a 1 -x {5.0 0.0 -1 ------- null}
r -t 0.875919999999999 -s 5 -d 2 -p ack -e 40 -c 1 -i 26 -a 1 -x {5.0 0.0 11 ------- null}
+ -t 0.875919999999999 -s 2 -d 1 -p ack -e 40 -c 1 -i 26 -a 1 -x {5.0 0.0 11 ------- null}
- -t 0.875919999999999 -s 2 -d 1 -p ack -e 40 -c 1 -i 26 -a 1 -x {5.0 0.0 11 ------- null}
h -t 0.875919999999999 -s 2 -d 1 -p ack -e 40 -c 1 -i 26 -a 1 -x {5.0 0.0 -1 ------- null}
r -t 0.876559999999999 -s 1 -d 2 -p tcp -e 1040 -c 1 -i 21 -a 1 -x {0.0 5.0 14 ------- null}
+ -t 0.876559999999999 -s 2 -d 5 -p tcp -e 1040 -c 1 -i 21 -a 1 -x {0.0 5.0 14 ------- null}
- -t 0.876559999999999 -s 2 -d 5 -p tcp -e 1040 -c 1 -i 21 -a 1 -x {0.0 5.0 14 ------- null}
h -t 0.876559999999999 -s 2 -d 5 -p tcp -e 1040 -c 1 -i 21 -a 1 -x {0.0 5.0 -1 ------- null}
- -t 0.877279999999999 -s 0 -d 1 -p tcp -e 1040 -c 1 -i 28 -a 1 -x {0.0 5.0 16 ------- null}
h -t 0.877279999999999 -s 0 -d 1 -p tcp -e 1040 -c 1 -i 28 -a 1 -x {0.0 5.0 -1 ------- null}
r -t 0.879599999999999 -s 2 -d 1 -p ack -e 40 -c 1 -i 24 -a 1 -x {5.0 0.0 9 ------- null}
+ -t 0.879599999999999 -s 1 -d 0 -p ack -e 40 -c 1 -i 24 -a 1 -x {5.0 0.0 9 ------- null}
- -t 0.879599999999999 -s 1 -d 0 -p ack -e 40 -c 1 -i 24 -a 1 -x {5.0 0.0 9 ------- null}
h -t 0.879599999999999 -s 1 -d 0 -p ack -e 40 -c 1 -i 24 -a 1 -x {5.0 0.0 -1 ------- null}
r -t 0.881439999999999 -s 1 -d 0 -p ack -e 40 -c 1 -i 23 -a 1 -x {5.0 0.0 8 ------- null}
+ -t 0.881439999999999 -s 0 -d 1 -p tcp -e 1040 -c 1 -i 30 -a 1 -x {0.0 5.0 17 ------- null}
+ -t 0.881439999999999 -s 0 -d 1 -p tcp -e 1040 -c 1 -i 31 -a 1 -x {0.0 5.0 18 ------- null}
- -t 0.881439999999999 -s 0 -d 1 -p tcp -e 1040 -c 1 -i 30 -a 1 -x {0.0 5.0 17 ------- null}
h -t 0.881439999999999 -s 0 -d 1 -p tcp -e 1040 -c 1 -i 30 -a 1 -x {0.0 5.0 -1 ------- null}
r -t 0.882399999999999 -s 2 -d 5 -p tcp -e 1040 -c 1 -i 20 -a 1 -x {0.0 5.0 13 ------- null}
+ -t 0.882399999999999 -s 5 -d 2 -p ack -e 40 -c 1 -i 32 -a 1 -x {5.0 0.0 13 ------- null}
- -t 0.882399999999999 -s 5 -d 2 -p ack -e 40 -c 1 -i 32 -a 1 -x {5.0 0.0 13 ------- null}
h -t 0.882399999999999 -s 5 -d 2 -p ack -e 40 -c 1 -i 32 -a 1 -x {5.0 0.0 -1 ------- null}
r -t 0.884239999999999 -s 5 -d 2 -p ack -e 40 -c 1 -i 29 -a 1 -x {5.0 0.0 12 ------- null}
+ -t 0.884239999999999 -s 2 -d 1 -p ack -e 40 -c 1 -i 29 -a 1 -x {5.0 0.0 12 ------- null}
- -t 0.884239999999999 -s 2 -d 1 -p ack -e 40 -c 1 -i 29 -a 1 -x {5.0 0.0 12 ------- null}
h -t 0.884239999999999 -s 2 -d 1 -p ack -e 40 -c 1 -i 29 -a 1 -x {5.0 0.0 -1 ------- null}
- -t 0.885599999999999 -s 0 -d 1 -p tcp -e 1040 -c 1 -i 31 -a 1 -x {0.0 5.0 18 ------- null}
h -t 0.885599999999999 -s 0 -d 1 -p tcp -e 1040 -c 1 -i 31 -a 1 -x {0.0 5.0 -1 ------- null}
r -t 0.887279999999999 -s 0 -d 1 -p tcp -e 1040 -c 1 -i 27 -a 1 -x {0.0 5.0 15 ------- null}
+ -t 0.887279999999999 -s 1 -d 2 -p tcp -e 1040 -c 1 -i 27 -a 1 -x {0.0 5.0 15 ------- null}
- -t 0.887279999999999 -s 1 -d 2 -p tcp -e 1040 -c 1 -i 27 -a 1 -x {0.0 5.0 15 ------- null}