+ 0.5 0 1 tcp 40 ------- 1 0.0 5.0 0 0
- 0.5 0 1 tcp 40 ------- 1 0.0 5.0 0 0
r 0.51016 0 1 tcp 40 ------- 1 0.0 5.0 0 0
+ 0.51016 1 2 tcp 40 ------- 1 0.0 5.0 0 0
- 0.51016 1 2 tcp 40 ------- 1 0.0 5.0 0 0
r 0.53048 1 2 tcp 40 ------- 1 0.0 5.0 0 0
+ 0.53048 2 5 tcp 40 ------- 1 0.0 5.0 0 0
- 0.53048 2 5 tcp 40 ------- 1 0.0 5.0 0 0
r 0.54064 2 5 tcp 40 ------- 1 0.0 5.0 0 0
+ 0.54064 5 2 ack 40 ------- 1 5.0 0.0 0 1
- 0.54064 5 2 ack 40 ------- 1 5.0 0.0 0 1
r 0.5508 5 2 ack 40 ------- 1 5.0 0.0 0 1
+ 0.5508 2 1 ack 40 ------- 1 5.0 0.0 0 1
- 0.5508 2 1 ack 40 ------- 1 5.0 0.0 0 1
r 0.57112 2 1 ack 40 ------- 1 5.0 0.0 0 1
+ 0.57112 1 0 ack 40 ------- 1 5.0 0.0 0 1
- 0.57112 1 0 ack 40 ------- 1 5.0 0.0 0 1
r 0.58128 1 0 ack 40 ------- 1 5.0 0.0 0 1
+ 0.58128 0 1 tcp 1040 ------- 1 0.0 5.0 1 2
- 0.58128 0 1 tcp 1040 ------- 1 0.0 5.0 1 2
+ 0.58128 0 1 tcp 1040 ------- 1 0.0 5.0 2 3
- 0.58544 0 1 tcp 1040 ------- 1 0.0 5.0 2 3
r 0.59544 0 1 tcp 1040 ------- 1 0.0 5.0 1 2
+ 0.59544 1 2 tcp 1040 ------- 1 0.0 5.0 1 2
- 0.59544 1 2 tcp 1040 ------- 1 0.0 5.0 1 2
r 0.5996 0 1 tcp 1040 ------- 1 0.0 5.0 2 3
+ 0.5996 1 2 tcp 1040 ------- 1 0.0 5.0 2 3
- 0.60376 1 2 tcp 1040 ------- 1 0.0 5.0 2 3
r 0.62376 1 2 tcp 1040 ------- 1 0.0 5.0 1 2
+ 0.62376 2 5 tcp 1040 ------- 1 0.0 5.0 1 2
- 0.62376 2 5 tcp 1040 ------- 1 0.0 5.0 1 2
r 0.63208 1 2 tcp 1040 ------- 1 0.0 5.0 2 3
+ 0.63208 2 5 tcp 1040 ------- 1 0.0 5.0 2 3
- 0.63208 2 5 tcp 1040 ------- 1 0.0 5.0 2 3
r 0.63792 2 5 tcp 1040 ------- 1 0.0 5.0 1 2
+ 0.63792 5 2 ack 40 ------- 1 5.0 0.0 1 4
- 0.63792 5 2 ack 40 ------- 1 5.0 0.0 1 4
r 0.64624 2 5 tcp 1040 ------- 1 0.0 5.0 2 3
+ 0.64624 5 2 ack 40 ------- 1 5.0 0.0 2 5
- 0.64624 5 2 ack 40 ------- 1 5.0 0.0 2 5
r 0.64808 5 2 ack 40 ------- 1 5.0 0.0 1 4
+ 0.64808 2 1 ack 40 ------- 1 5.0 0.0 1 4
- 0.64808 2 1 ack 40 ------- 1 5.0 0.0 1 4
r 0.6564 5 2 ack 40 ------- 1 5.0 0.0 2 5
+ 0.6564 2 1 ack 40 ------- 1 5.0 0.0 2 5
- 0.6564 2 1 ack 40 ------- 1 5.0 0.0 2 5
r 0.6684 2 1 ack 40 ------- 1 5.0 0.0 1 4
+ 0.6684 1 0 ack 40 ------- 1 5.0 0.0 1 4
- 0.6684 1 0 ack 40 ------- 1 5.0 0.0 1 4
r 0.67672 2 1 ack 40 ------- 1 5.0 0.0 2 5
+ 0.67672 1 0 ack 40 ------- 1 5.0 0.0 2 5
- 0.67672 1 0 ack 40 ------- 1 5.0 0.0 2 5
r 0.67856 1 0 ack 40 ------- 1 5.0 0.0 1 4
+ 0.67856 0 1 tcp 1040 ------- 1 0.0 5.0 3 6
- 0.67856 0 1 tcp 1040 ------- 1 0.0 5.0 3 6
+ 0.67856 0 1 tcp 1040 ------- 1 0.0 5.0 4 7
- 0.68272 0 1 tcp 1040 ------- 1 0.0 5.0 4 7
r 0.68688 1 0 ack 40 ------- 1 5.0 0.0 2 5
+ 0.68688 0 1 tcp 1040 ------- 1 0.0 5.0 5 8
+ 0.68688 0 1 tcp 1040 ------- 1 0.0 5.0 6 9
- 0.68688 0 1 tcp 1040 ------- 1 0.0 5.0 5 8
- 0.69104 0 1 tcp 1040 ------- 1 0.0 5.0 6 9
r 0.69272 0 1 tcp 1040 ------- 1 0.0 5.0 3 6
+ 0.69272 1 2 tcp 1040 ------- 1 0.0 5.0 3 6
- 0.69272 1 2 tcp 1040 ------- 1 0.0 5.0 3 6
r 0.69688 0 1 tcp 1040 ------- 1 0.0 5.0 4 7
+ 0.69688 1 2 tcp 1040 ------- 1 0.0 5.0 4 7
- 0.70104 1 2 tcp 1040 ------- 1 0.0 5.0 4 7
r 0.70104 0 1 tcp 1040 ------- 1 0.0 5.0 5 8
+ 0.70104 1 2 tcp 1040 ------- 1 0.0 5.0 5 8
r 0.7052 0 1 tcp 1040 ------- 1 0.0 5.0 6 9
+ 0.7052 1 2 tcp 1040 ------- 1 0.0 5.0 6 9
- 0.70936 1 2 tcp 1040 ------- 1 0.0 5.0 5 8
- 0.71768 1 2 tcp 1040 ------- 1 0.0 5.0 6 9
r 0.72104 1 2 tcp 1040 ------- 1 0.0 5.0 3 6
+ 0.72104 2 5 tcp 1040 ------- 1 0.0 5.0 3 6
- 0.72104 2 5 tcp 1040 ------- 1 0.0 5.0 3 6
r 0.72936 1 2 tcp 1040 ------- 1 0.0 5.0 4 7
+ 0.72936 2 5 tcp 1040 ------- 1 0.0 5.0 4 7
- 0.72936 2 5 tcp 1040 ------- 1 0.0 5.0 4 7
r 0.7352 2 5 tcp 1040 ------- 1 0.0 5.0 3 6
+ 0.7352 5 2 ack 40 ------- 1 5.0 0.0 3 10
- 0.7352 5 2 ack 40 ------- 1 5.0 0.0 3 10
r 0.73768 1 2 tcp 1040 ------- 1 0.0 5.0 5 8
+ 0.73768 2 5 tcp 1040 ------- 1 0.0 5.0 5 8
- 0.73768 2 5 tcp 1040 ------- 1 0.0 5.0 5 8
r 0.74352 2 5 tcp 1040 ------- 1 0.0 5.0 4 7
+ 0.74352 5 2 ack 40 ------- 1 5.0 0.0 4 11
- 0.74352 5 2 ack 40 ------- 1 5.0 0.0 4 11
r 0.74536 5 2 ack 40 ------- 1 5.0 0.0 3 10
+ 0.74536 2 1 ack 40 ------- 1 5.0 0.0 3 10
- 0.74536 2 1 ack 40 ------- 1 5.0 0.0 3 10
r 0.746 1 2 tcp 1040 ------- 1 0.0 5.0 6 9
+ 0.746 2 5 tcp 1040 ------- 1 0.0 5.0 6 9
- 0.746 2 5 tcp 1040 ------- 1 0.0 5.0 6 9
r 0.75184 2 5 tcp 1040 ------- 1 0.0 5.0 5 8
+ 0.75184 5 2 ack 40 ------- 1 5.0 0.0 5 12
- 0.75184 5 2 ack 40 ------- 1 5.0 0.0 5 12
r 0.75368 5 2 ack 40 ------- 1 5.0 0.0 4 11
+ 0.75368 2 1 ack 40 ------- 1 5.0 0.0 4 11
- 0.75368 2 1 ack 40 ------- 1 5.0 0.0 4 11
r 0.76016 2 5 tcp 1040 ------- 1 0.0 5.0 6 9
+ 0.76016 5 2 ack 40 ------- 1 5.0 0.0 6 13
- 0.76016 5 2 ack 40 ------- 1 5.0 0.0 6 13
r 0.762 5 2 ack 40 ------- 1 5.0 0.0 5 12
+ 0.762 2 1 ack 40 ------- 1 5.0 0.0 5 12
- 0.762 2 1 ack 40 ------- 1 5.0 0.0 5 12
r 0.76568 2 1 ack 40 ------- 1 5.0 0.0 3 10
+ 0.76568 1 0 ack 40 ------- 1 5.0 0.0 3 10
- 0.76568 1 0 ack 40 ------- 1 5.0 0.0 3 10
r 0.77032 5 2 ack 40 ------- 1 5.0 0.0 6 13
+ 0.77032 2 1 ack 40 ------- 1 5.0 0.0 6 13
- 0.77032 2 1 ack 40 ------- 1 5.0 0.0 6 13
r 0.774 2 1 ack 40 ------- 1 5.0 0.0 4 11
+ 0.774 1 0 ack 40 ------- 1 5.0 0.0 4 11
- 0.774 1 0 ack 40 ------- 1 5.0 0.0 4 11
r 0.77584 1 0 ack 40 ------- 1 5.0 0.0 3 10
+ 0.77584 0 1 tcp 1040 ------- 1 0.0 5.0 7 14
- 0.77584 0 1 tcp 1040 ------- 1 0.0 5.0 7 14
+ 0.77584 0 1 tcp 1040 ------- 1 0.0 5.0 8 15
- 0.78 0 1 tcp 1040 ------- 1 0.0 5.0 8 15
r 0.78232 2 1 ack 40 ------- 1 5.0 0.0 5 12
+ 0.78232 1 0 ack 40 ------- 1 5.0 0.0 5 12
- 0.78232 1 0 ack 40 ------- 1 5.0 0.0 5 12
r 0.78416 1 0 ack 40 ------- 1 5.0 0.0 4 11
+ 0.78416 0 1 tcp 1040 ------- 1 0.0 5.0 9 16
+ 0.78416 0 1 tcp 1040 ------- 1 0.0 5.0 10 17
- 0.78416 0 1 tcp 1040 ------- 1 0.0 5.0 9 16
- 0.78832 0 1 tcp 1040 ------- 1 0.0 5.0 10 17
r 0.79 0 1 tcp 1040 ------- 1 0.0 5.0 7 14
+ 0.79 1 2 tcp 1040 ------- 1 0.0 5.0 7 14
- 0.79 1 2 tcp 1040 ------- 1 0.0 5.0 7 14
r 0.79064 2 1 ack 40 ------- 1 5.0 0.0 6 13
+ 0.79064 1 0 ack 40 ------- 1 5.0 0.0 6 13
- 0.79064 1 0 ack 40 ------- 1 5.0 0.0 6 13
r 0.79248 1 0 ack 40 ------- 1 5.0 0.0 5 12
+ 0.79248 0 1 tcp 1040 ------- 1 0.0 5.0 11 18
+ 0.79248 0 1 tcp 1040 ------- 1 0.0 5.0 12 19
- 0.79248 0 1 tcp 1040 ------- 1 0.0 5.0 11 18
r 0.79416 0 1 tcp 1040 ------- 1 0.0 5.0 8 15
+ 0.79416 1 2 tcp 1040 ------- 1 0.0 5.0 8 15
- 0.79664 0 1 tcp 1040 ------- 1 0.0 5.0 12 19
- 0.79832 1 2 tcp 1040 ------- 1 0.0 5.0 8 15
r 0.79832 0 1 tcp 1040 ------- 1 0.0 5.0 9 16
+ 0.79832 1 2 tcp 1040 ------- 1 0.0 5.0 9 16
r 0.8008 1 0 ack 40 ------- 1 5.0 0.0 6 13
+ 0.8008 0 1 tcp 1040 ------- 1 0.0 5.0 13 20
+ 0.8008 0 1 tcp 1040 ------- 1 0.0 5.0 14 21
- 0.8008 0 1 tcp 1040 ------- 1 0.0 5.0 13 20
r 0.80248 0 1 tcp 1040 ------- 1 0.0 5.0 10 17
+ 0.80248 1 2 tcp 1040 ------- 1 0.0 5.0 10 17
- 0.80496 0 1 tcp 1040 ------- 1 0.0 5.0 14 21
- 0.80664 1 2 tcp 1040 ------- 1 0.0 5.0 9 16
r 0.80664 0 1 tcp 1040 ------- 1 0.0 5.0 11 18
+ 0.80664 1 2 tcp 1040 ------- 1 0.0 5.0 11 18
r 0.8108 0 1 tcp 1040 ------- 1 0.0 5.0 12 19
+ 0.8108 1 2 tcp 1040 ------- 1 0.0 5.0 12 19
- 0.81496 1 2 tcp 1040 ------- 1 0.0 5.0 10 17
r 0.81496 0 1 tcp 1040 ------- 1 0.0 5.0 13 20
+ 0.81496 1 2 tcp 1040 ------- 1 0.0 5.0 13 20
r 0.81832 1 2 tcp 1040 ------- 1 0.0 5.0 7 14
+ 0.81832 2 5 tcp 1040 ------- 1 0.0 5.0 7 14
- 0.81832 2 5 tcp 1040 ------- 1 0.0 5.0 7 14
r 0.81912 0 1 tcp 1040 ------- 1 0.0 5.0 14 21
+ 0.81912 1 2 tcp 1040 ------- 1 0.0 5.0 14 21
- 0.82328 1 2 tcp 1040 ------- 1 0.0 5.0 11 18
r 0.82664 1 2 tcp 1040 ------- 1 0.0 5.0 8 15
+ 0.82664 2 5 tcp 1040 ------- 1 0.0 5.0 8 15
- 0.82664 2 5 tcp 1040 ------- 1 0.0 5.0 8 15
- 0.8316 1 2 tcp 1040 ------- 1 0.0 5.0 12 19
r 0.83248 2 5 tcp 1040 ------- 1 0.0 5.0 7 14
+ 0.83248 5 2 ack 40 ------- 1 5.0 0.0 7 22
- 0.83248 5 2 ack 40 ------- 1 5.0 0.0 7 22
r 0.83496 1 2 tcp 1040 ------- 1 0.0 5.0 9 16
+ 0.83496 2 5 tcp 1040 ------- 1 0.0 5.0 9 16
- 0.83496 2 5 tcp 1040 ------- 1 0.0 5.0 9 16
- 0.83992 1 2 tcp 1040 ------- 1 0.0 5.0 13 20
r 0.8408 2 5 tcp 1040 ------- 1 0.0 5.0 8 15
+ 0.8408 5 2 ack 40 ------- 1 5.0 0.0 8 23
- 0.8408 5 2 ack 40 ------- 1 5.0 0.0 8 23
r 0.84264 5 2 ack 40 ------- 1 5.0 0.0 7 22
+ 0.84264 2 1 ack 40 ------- 1 5.0 0.0 7 22
- 0.84264 2 1 ack 40 ------- 1 5.0 0.0 7 22
r 0.84328 1 2 tcp 1040 ------- 1 0.0 5.0 10 17
+ 0.84328 2 5 tcp 1040 ------- 1 0.0 5.0 10 17
- 0.84328 2 5 tcp 1040 ------- 1 0.0 5.0 10 17
- 0.84824 1 2 tcp 1040 ------- 1 0.0 5.0 14 21
r 0.84912 2 5 tcp 1040 ------- 1 0.0 5.0 9 16
+ 0.84912 5 2 ack 40 ------- 1 5.0 0.0 9 24
- 0.84912 5 2 ack 40 ------- 1 5.0 0.0 9 24
r 0.85096 5 2 ack 40 ------- 1 5.0 0.0 8 23
+ 0.85096 2 1 ack 40 ------- 1 5.0 0.0 8 23
- 0.85096 2 1 ack 40 ------- 1 5.0 0.0 8 23
r 0.8516 1 2 tcp 1040 ------- 1 0.0 5.0 11 18
+ 0.8516 2 5 tcp 1040 ------- 1 0.0 5.0 11 18
- 0.8516 2 5 tcp 1040 ------- 1 0.0 5.0 11 18
r 0.85744 2 5 tcp 1040 ------- 1 0.0 5.0 10 17
+ 0.85744 5 2 ack 40 ------- 1 5.0 0.0 10 25
- 0.85744 5 2 ack 40 ------- 1 5.0 0.0 10 25
r 0.85928 5 2 ack 40 ------- 1 5.0 0.0 9 24
+ 0.85928 2 1 ack 40 ------- 1 5.0 0.0 9 24
- 0.85928 2 1 ack 40 ------- 1 5.0 0.0 9 24
r 0.85992 1 2 tcp 1040 ------- 1 0.0 5.0 12 19
+ 0.85992 2 5 tcp 1040 ------- 1 0.0 5.0 12 19
- 0.85992 2 5 tcp 1040 ------- 1 0.0 5.0 12 19
r 0.86296 2 1 ack 40 ------- 1 5.0 0.0 7 22
+ 0.86296 1 0 ack 40 ------- 1 5.0 0.0 7 22
- 0.86296 1 0 ack 40 ------- 1 5.0 0.0 7 22
r 0.86576 2 5 tcp 1040 ------- 1 0.0 5.0 11 18
+ 0.86576 5 2 ack 40 ------- 1 5.0 0.0 11 26
- 0.86576 5 2 ack 40 ------- 1 5.0 0.0 11 26
r 0.8676 5 2 ack 40 ------- 1 5.0 0.0 10 25
+ 0.8676 2 1 ack 40 ------- 1 5.0 0.0 10 25
- 0.8676 2 1 ack 40 ------- 1 5.0 0.0 10 25
r 0.86824 1 2 tcp 1040 ------- 1 0.0 5.0 13 20
+ 0.86824 2 5 tcp 1040 ------- 1 0.0 5.0 13 20
- 0.86824 2 5 tcp 1040 ------- 1 0.0 5.0 13 20
r 0.87128 2 1 ack 40 ------- 1 5.0 0.0 8 23
+ 0.87128 1 0 ack 40 ------- 1 5.0 0.0 8 23
- 0.87128 1 0 ack 40 ------- 1 5.0 0.0 8 23
r 0.87312 1 0 ack 40 ------- 1 5.0 0.0 7 22
+ 0.87312 0 1 tcp 1040 ------- 1 0.0 5.0 15 27
- 0.87312 0 1 tcp 1040 ------- 1 0.0 5.0 15 27
+ 0.87312 0 1 tcp 1040 ------- 1 0.0 5.0 16 28
r 0.87408 2 5 tcp 1040 ------- 1 0.0 5.0 12 19
+ 0.87408 5 2 ack 40 ------- 1 5.0 0.0 12 29
- 0.87408 5 2 ack 40 ------- 1 5.0 0.0 12 29
r 0.87592 5 2 ack 40 ------- 1 5.0 0.0 11 26
+ 0.87592 2 1 ack 40 ------- 1 5.0 0.0 11 26
- 0.87592 2 1 ack 40 ------- 1 5.0 0.0 11 26
r 0.87656 1 2 tcp 1040 ------- 1 0.0 5.0 14 21
+ 0.87656 2 5 tcp 1040 ------- 1 0.0 5.0 14 21
- 0.87656 2 5 tcp 1040 ------- 1 0.0 5.0 14 21
- 0.87728 0 1 tcp 1040 ------- 1 0.0 5.0 16 28
r 0.8796 2 1 ack 40 ------- 1 5.0 0.0 9 24
+ 0.8796 1 0 ack 40 ------- 1 5.0 0.0 9 24
- 0.8796 1 0 ack 40 ------- 1 5.0 0.0 9 24
r 0.88144 1 0 ack 40 ------- 1 5.0 0.0 8 23
+ 0.88144 0 1 tcp 1040 ------- 1 0.0 5.0 17 30
+ 0.88144 0 1 tcp 1040 ------- 1 0.0 5.0 18 31
- 0.88144 0 1 tcp 1040 ------- 1 0.0 5.0 17 30
r 0.8824 2 5 tcp 1040 ------- 1 0.0 5.0 13 20
+ 0.8824 5 2 ack 40 ------- 1 5.0 0.0 13 32
- 0.8824 5 2 ack 40 ------- 1 5.0 0.0 13 32
r 0.88424 5 2 ack 40 ------- 1 5.0 0.0 12 29
+ 0.88424 2 1 ack 40 ------- 1 5.0 0.0 12 29
- 0.88424 2 1 ack 40 ------- 1 5.0 0.0 12 29
- 0.8856 0 1 tcp 1040 ------- 1 0.0 5.0 18 31
r 0.88728 0 1 tcp 1040 ------- 1 0.0 5.0 15 27
+ 0.88728 1 2 tcp 1040 ------- 1 0.0 5.0 15 27
- 0.88728 1 2 tcp 1040 ------- 1 0.0 5.0 15 27
r 0.88792 2 1 ack 40 ------- 1 5.0 0.0 10 25
+ 0.88792 1 0 ack 40 ------- 1 5.0 0.0 10 25
- 0.88792 1 0 ack 40 ------- 1 5.0 0.0 10 25
r 0.88976 1 0 ack 40 ------- 1 5.0 0.0 9 24
+ 0.88976 0 1 tcp 1040 ------- 1 0.0 5.0 19 33
+ 0.88976 0 1 tcp 1040 ------- 1 0.0 5.0 20 34
- 0.88976 0 1 tcp 1040 ------- 1 0.0 5.0 19 33
r 0.89072 2 5 tcp 1040 ------- 1 0.0 5.0 14 21
+ 0.89072 5 2 ack 40 ------- 1 5.0 0.0 14 35
- 0.89072 5 2 ack 40 ------- 1 5.0 0.0 14 35
r 0.89144 0 1 tcp 1040 ------- 1 0.0 5.0 16 28
+ 0.89144 1 2 tcp 1040 ------- 1 0.0 5.0 16 28
r 0.89256 5 2 ack 40 ------- 1 5.0 0.0 13 32
+ 0.89256 2 1 ack 40 ------- 1 5.0 0.0 13 32
- 0.89256 2 1 ack 40 ------- 1 5.0 0.0 13 32
- 0.89392 0 1 tcp 1040 ------- 1 0.0 5.0 20 34
- 0.8956 1 2 tcp 1040 ------- 1 0.0 5.0 16 28
r 0.8956 0 1 tcp 1040 ------- 1 0.0 5.0 17 30
+ 0.8956 1 2 tcp 1040 ------- 1 0.0 5.0 17 30
r 0.89624 2 1 ack 40 ------- 1 5.0 0.0 11 26
+ 0.89624 1 0 ack 40 ------- 1 5.0 0.0 11 26
- 0.89624 1 0 ack 40 ------- 1 5.0 0.0 11 26
r 0.89808 1 0 ack 40 ------- 1 5.0 0.0 10 25
+ 0.89808 0 1 tcp 1040 ------- 1 0.0 5.0 21 36
+ 0.89808 0 1 tcp 1040 ------- 1 0.0 5.0 22 37
- 0.89808 0 1 tcp 1040 ------- 1 0.0 5.0 21 36
r 0.89976 0 1 tcp 1040 ------- 1 0.0 5.0 18 31
+ 0.89976 1 2 tcp 1040 ------- 1 0.0 5.0 18 31
r 0.90088 5 2 ack 40 ------- 1 5.0 0.0 14 35
+ 0.90088 2 1 ack 40 ------- 1 5.0 0.0 14 35
- 0.90088 2 1 ack 40 ------- 1 5.0 0.0 14 35
- 0.90224 0 1 tcp 1040 ------- 1 0.0 5.0 22 37
- 0.90392 1 2 tcp 1040 ------- 1 0.0 5.0 17 30
r 0.90392 0 1 tcp 1040 ------- 1 0.0 5.0 19 33
+ 0.90392 1 2 tcp 1040 ------- 1 0.0 5.0 19 33
r 0.90456 2 1 ack 40 ------- 1 5.0 0.0 12 29
+ 0.90456 1 0 ack 40 ------- 1 5.0 0.0 12 29
- 0.90456 1 0 ack 40 ------- 1 5.0 0.0 12 29
r 0.9064 1 0 ack 40 ------- 1 5.0 0.0 11 26
+ 0.9064 0 1 tcp 1040 ------- 1 0.0 5.0 23 38
+ 0.9064 0 1 tcp 1040 ------- 1 0.0 5.0 24 39
- 0.9064 0 1 tcp 1040 ------- 1 0.0 5.0 23 38
r 0.90808 0 1 tcp 1040 ------- 1 0.0 5.0 20 34
+ 0.90808 1 2 tcp 1040 ------- 1 0.0 5.0 20 34
- 0.91056 0 1 tcp 1040 ------- 1 0.0 5.0 24 39
- 0.91224 1 2 tcp 1040 ------- 1 0.0 5.0 18 31
r 0.91224 0 1 tcp 1040 ------- 1 0.0 5.0 21 36
+ 0.91224 1 2 tcp 1040 ------- 1 0.0 5.0 21 36
r 0.91288 2 1 ack 40 ------- 1 5.0 0.0 13 32
+ 0.91288 1 0 ack 40 ------- 1 5.0 0.0 13 32
- 0.91288 1 0 ack 40 ------- 1 5.0 0.0 13 32
r 0.91472 1 0 ack 40 ------- 1 5.0 0.0 12 29
+ 0.91472 0 1 tcp 1040 ------- 1 0.0 5.0 25 40
+ 0.91472 0 1 tcp 1040 ------- 1 0.0 5.0 26 41
- 0.91472 0 1 tcp 1040 ------- 1 0.0 5.0 25 40
r 0.9156 1 2 tcp 1040 ------- 1 0.0 5.0 15 27
+ 0.9156 2 5 tcp 1040 ------- 1 0.0 5.0 15 27
- 0.9156 2 5 tcp 1040 ------- 1 0.0 5.0 15 27
r 0.9164 0 1 tcp 1040 ------- 1 0.0 5.0 22 37
+ 0.9164 1 2 tcp 1040 ------- 1 0.0 5.0 22 37
- 0.91888 0 1 tcp 1040 ------- 1 0.0 5.0 26 41
- 0.92056 1 2 tcp 1040 ------- 1 0.0 5.0 19 33
r 0.92056 0 1 tcp 1040 ------- 1 0.0 5.0 23 38
+ 0.92056 1 2 tcp 1040 ------- 1 0.0 5.0 23 38
r 0.9212 2 1 ack 40 ------- 1 5.0 0.0 14 35
+ 0.9212 1 0 ack 40 ------- 1 5.0 0.0 14 35
- 0.9212 1 0 ack 40 ------- 1 5.0 0.0 14 35
r 0.92304 1 0 ack 40 ------- 1 5.0 0.0 13 32
+ 0.92304 0 1 tcp 1040 ------- 1 0.0 5.0 27 42
+ 0.92304 0 1 tcp 1040 ------- 1 0.0 5.0 28 43
- 0.92304 0 1 tcp 1040 ------- 1 0.0 5.0 27 42
r 0.92392 1 2 tcp 1040 ------- 1 0.0 5.0 16 28
+ 0.92392 2 5 tcp 1040 ------- 1 0.0 5.0 16 28
- 0.92392 2 5 tcp 1040 ------- 1 0.0 5.0 16 28
r 0.92472 0 1 tcp 1040 ------- 1 0.0 5.0 24 39
+ 0.92472 1 2 tcp 1040 ------- 1 0.0 5.0 24 39
- 0.9272 0 1 tcp 1040 ------- 1 0.0 5.0 28 43
- 0.92888 1 2 tcp 1040 ------- 1 0.0 5.0 20 34
r 0.92888 0 1 tcp 1040 ------- 1 0.0 5.0 25 40
+ 0.92888 1 2 tcp 1040 ------- 1 0.0 5.0 25 40
r 0.92976 2 5 tcp 1040 ------- 1 0.0 5.0 15 27
+ 0.92976 5 2 ack 40 ------- 1 5.0 0.0 15 44
- 0.92976 5 2 ack 40 ------- 1 5.0 0.0 15 44
r 0.93136 1 0 ack 40 ------- 1 5.0 0.0 14 35
+ 0.93136 0 1 tcp 1040 ------- 1 0.0 5.0 29 45
+ 0.93136 0 1 tcp 1040 ------- 1 0.0 5.0 30 46
- 0.93136 0 1 tcp 1040 ------- 1 0.0 5.0 29 45
r 0.93224 1 2 tcp 1040 ------- 1 0.0 5.0 17 30
+ 0.93224 2 5 tcp 1040 ------- 1 0.0 5.0 17 30
- 0.93224 2 5 tcp 1040 ------- 1 0.0 5.0 17 30
r 0.93304 0 1 tcp 1040 ------- 1 0.0 5.0 26 41
+ 0.93304 1 2 tcp 1040 ------- 1 0.0 5.0 26 41
- 0.93552 0 1 tcp 1040 ------- 1 0.0 5.0 30 46
- 0.9372 1 2 tcp 1040 ------- 1 0.0 5.0 21 36
r 0.9372 0 1 tcp 1040 ------- 1 0.0 5.0 27 42
+ 0.9372 1 2 tcp 1040 ------- 1 0.0 5.0 27 42
r 0.93808 2 5 tcp 1040 ------- 1 0.0 5.0 16 28
+ 0.93808 5 2 ack 40 ------- 1 5.0 0.0 16 47
- 0.93808 5 2 ack 40 ------- 1 5.0 0.0 16 47
r 0.93992 5 2 ack 40 ------- 1 5.0 0.0 15 44
+ 0.93992 2 1 ack 40 ------- 1 5.0 0.0 15 44
- 0.93992 2 1 ack 40 ------- 1 5.0 0.0 15 44
r 0.94056 1 2 tcp 1040 ------- 1 0.0 5.0 18 31
+ 0.94056 2 5 tcp 1040 ------- 1 0.0 5.0 18 31
- 0.94056 2 5 tcp 1040 ------- 1 0.0 5.0 18 31
r 0.94136 0 1 tcp 1040 ------- 1 0.0 5.0 28 43
+ 0.94136 1 2 tcp 1040 ------- 1 0.0 5.0 28 43
- 0.94552 1 2 tcp 1040 ------- 1 0.0 5.0 22 37
r 0.94552 0 1 tcp 1040 ------- 1 0.0 5.0 29 45
+ 0.94552 1 2 tcp 1040 ------- 1 0.0 5.0 29 45
r 0.9464 2 5 tcp 1040 ------- 1 0.0 5.0 17 30
+ 0.9464 5 2 ack 40 ------- 1 5.0 0.0 17 48
- 0.9464 5 2 ack 40 ------- 1 5.0 0.0 17 48
r 0.94824 5 2 ack 40 ------- 1 5.0 0.0 16 47
+ 0.94824 2 1 ack 40 ------- 1 5.0 0.0 16 47
- 0.94824 2 1 ack 40 ------- 1 5.0 0.0 16 47
r 0.94888 1 2 tcp 1040 ------- 1 0.0 5.0 19 33
+ 0.94888 2 5 tcp 1040 ------- 1 0.0 5.0 19 33
- 0.94888 2 5 tcp 1040 ------- 1 0.0 5.0 19 33
r 0.94968 0 1 tcp 1040 ------- 1 0.0 5.0 30 46
+ 0.94968 1 2 tcp 1040 ------- 1 0.0 5.0 30 46
- 0.95384 1 2 tcp 1040 ------- 1 0.0 5.0 23 38
r 0.95472 2 5 tcp 1040 ------- 1 0.0 5.0 18 31
+ 0.95472 5 2 ack 40 ------- 1 5.0 0.0 18 49
- 0.95472 5 2 ack 40 ------- 1 5.0 0.0 18 49
r 0.95656 5 2 ack 40 ------- 1 5.0 0.0 17 48
+ 0.95656 2 1 ack 40 ------- 1 5.0 0.0 17 48
- 0.95656 2 1 ack 40 ------- 1 5.0 0.0 17 48
r 0.9572 1 2 tcp 1040 ------- 1 0.0 5.0 20 34
+ 0.9572 2 5 tcp 1040 ------- 1 0.0 5.0 20 34
- 0.9572 2 5 tcp 1040 ------- 1 0.0 5.0 20 34
r 0.96024 2 1 ack 40 ------- 1 5.0 0.0 15 44
+ 0.96024 1 0 ack 40 ------- 1 5.0 0.0 15 44
- 0.96024 1 0 ack 40 ------- 1 5.0 0.0 15 44
- 0.96216 1 2 tcp 1040 ------- 1 0.0 5.0 24 39
r 0.96304 2 5 tcp 1040 ------- 1 0.0 5.0 19 33
+ 0.96304 5 2 ack 40 ------- 1 5.0 0.0 19 50
- 0.96304 5 2 ack 40 ------- 1 5.0 0.0 19 50
r 0.96488 5 2 ack 40 ------- 1 5.0 0.0 18 49
+ 0.96488 2 1 ack 40 ------- 1 5.0 0.0 18 49
- 0.96488 2 1 ack 40 ------- 1 5.0 0.0 18 49
r 0.96552 1 2 tcp 1040 ------- 1 0.0 5.0 21 36
+ 0.96552 2 5 tcp 1040 ------- 1 0.0 5.0 21 36
- 0.96552 2 5 tcp 1040 ------- 1 0.0 5.0 21 36
r 0.96856 2 1 ack 40 ------- 1 5.0 0.0 16 47
+ 0.96856 1 0 ack 40 ------- 1 5.0 0.0 16 47
- 0.96856 1 0 ack 40 ------- 1 5.0 0.0 16 47
r 0.9704 1 0 ack 40 ------- 1 5.0 0.0 15 44
+ 0.9704 0 1 tcp 1040 ------- 1 0.0 5.0 31 51
- 0.9704 0 1 tcp 1040 ------- 1 0.0 5.0 31 51
+ 0.9704 0 1 tcp 1040 ------- 1 0.0 5.0 32 52
- 0.97048 1 2 tcp 1040 ------- 1 0.0 5.0 25 40
r 0.97136 2 5 tcp 1040 ------- 1 0.0 5.0 20 34
+ 0.97136 5 2 ack 40 ------- 1 5.0 0.0 20 53
- 0.97136 5 2 ack 40 ------- 1 5.0 0.0 20 53
r 0.9732 5 2 ack 40 ------- 1 5.0 0.0 19 50
+ 0.9732 2 1 ack 40 ------- 1 5.0 0.0 19 50
- 0.9732 2 1 ack 40 ------- 1 5.0 0.0 19 50
r 0.97384 1 2 tcp 1040 ------- 1 0.0 5.0 22 37
+ 0.97384 2 5 tcp 1040 ------- 1 0.0 5.0 22 37
- 0.97384 2 5 tcp 1040 ------- 1 0.0 5.0 22 37
- 0.97456 0 1 tcp 1040 ------- 1 0.0 5.0 32 52
r 0.97688 2 1 ack 40 ------- 1 5.0 0.0 17 48
+ 0.97688 1 0 ack 40 ------- 1 5.0 0.0 17 48
- 0.97688 1 0 ack 40 ------- 1 5.0 0.0 17 48
r 0.97872 1 0 ack 40 ------- 1 5.0 0.0 16 47
+ 0.97872 0 1 tcp 1040 ------- 1 0.0 5.0 33 54
+ 0.97872 0 1 tcp 1040 ------- 1 0.0 5.0 34 55
- 0.97872 0 1 tcp 1040 ------- 1 0.0 5.0 33 54
- 0.9788 1 2 tcp 1040 ------- 1 0.0 5.0 26 41
r 0.97968 2 5 tcp 1040 ------- 1 0.0 5.0 21 36
+ 0.97968 5 2 ack 40 ------- 1 5.0 0.0 21 56
- 0.97968 5 2 ack 40 ------- 1 5.0 0.0 21 56
r 0.98152 5 2 ack 40 ------- 1 5.0 0.0 20 53
+ 0.98152 2 1 ack 40 ------- 1 5.0 0.0 20 53
- 0.98152 2 1 ack 40 ------- 1 5.0 0.0 20 53
r 0.98216 1 2 tcp 1040 ------- 1 0.0 5.0 23 38
+ 0.98216 2 5 tcp 1040 ------- 1 0.0 5.0 23 38
- 0.98216 2 5 tcp 1040 ------- 1 0.0 5.0 23 38
- 0.98288 0 1 tcp 1040 ------- 1 0.0 5.0 34 55
r 0.98456 0 1 tcp 1040 ------- 1 0.0 5.0 31 51
+ 0.98456 1 2 tcp 1040 ------- 1 0.0 5.0 31 51
r 0.9852 2 1 ack 40 ------- 1 5.0 0.0 18 49
+ 0.9852 1 0 ack 40 ------- 1 5.0 0.0 18 49
- 0.9852 1 0 ack 40 ------- 1 5.0 0.0 18 49
r 0.98704 1 0 ack 40 ------- 1 5.0 0.0 17 48
+ 0.98704 0 1 tcp 1040 ------- 1 0.0 5.0 35 57
+ 0.98704 0 1 tcp 1040 ------- 1 0.0 5.0 36 58
- 0.98704 0 1 tcp 1040 ------- 1 0.0 5.0 35 57
- 0.98712 1 2 tcp 1040 ------- 1 0.0 5.0 27 42
r 0.988 2 5 tcp 1040 ------- 1 0.0 5.0 22 37
+ 0.988 5 2 ack 40 ------- 1 5.0 0.0 22 59
- 0.988 5 2 ack 40 ------- 1 5.0 0.0 22 59
r 0.98872 0 1 tcp 1040 ------- 1 0.0 5.0 32 52
+ 0.98872 1 2 tcp 1040 ------- 1 0.0 5.0 32 52
r 0.98984 5 2 ack 40 ------- 1 5.0 0.0 21 56
+ 0.98984 2 1 ack 40 ------- 1 5.0 0.0 21 56
- 0.98984 2 1 ack 40 ------- 1 5.0 0.0 21 56
r 0.99048 1 2 tcp 1040 ------- 1 0.0 5.0 24 39
+ 0.99048 2 5 tcp 1040 ------- 1 0.0 5.0 24 39
- 0.99048 2 5 tcp 1040 ------- 1 0.0 5.0 24 39
- 0.9912 0 1 tcp 1040 ------- 1 0.0 5.0 36 58
r 0.99288 0 1 tcp 1040 ------- 1 0.0 5.0 33 54
+ 0.99288 1 2 tcp 1040 ------- 1 0.0 5.0 33 54
r 0.99352 2 1 ack 40 ------- 1 5.0 0.0 19 50
+ 0.99352 1 0 ack 40 ------- 1 5.0 0.0 19 50
- 0.99352 1 0 ack 40 ------- 1 5.0 0.0 19 50
r 0.99536 1 0 ack 40 ------- 1 5.0 0.0 18 49
+ 0.99536 0 1 tcp 1040 ------- 1 0.0 5.0 37 60
+ 0.99536 0 1 tcp 1040 ------- 1 0.0 5.0 38 61
- 0.99536 0 1 tcp 1040 ------- 1 0.0 5.0 37 60
- 0.99544 1 2 tcp 1040 ------- 1 0.0 5.0 28 43
r 0.99632 2 5 tcp 1040 ------- 1 0.0 5.0 23 38
+ 0.99632 5 2 ack 40 ------- 1 5.0 0.0 23 62
- 0.99632 5 2 ack 40 ------- 1 5.0 0.0 23 62
r 0.99704 0 1 tcp 1040 ------- 1 0.0 5.0 34 55
+ 0.99704 1 2 tcp 1040 ------- 1 0.0 5.0 34 55
r 0.99816 5 2 ack 40 ------- 1 5.0 0.0 22 59
+ 0.99816 2 1 ack 40 ------- 1 5.0 0.0 22 59
- 0.99816 2 1 ack 40 ------- 1 5.0 0.0 22 59
r 0.9988 1 2 tcp 1040 ------- 1 0.0 5.0 25 40
+ 0.9988 2 5 tcp 1040 ------- 1 0.0 5.0 25 40
- 0.9988 2 5 tcp 1040 ------- 1 0.0 5.0 25 40
- 0.99952 0 1 tcp 1040 ------- 1 0.0 5.0 38 61
r 1.0012 0 1 tcp 1040 ------- 1 0.0 5.0 35 57
+ 1.0012 1 2 tcp 1040 ------- 1 0.0 5.0 35 57
r 1.00184 2 1 ack 40 ------- 1 5.0 0.0 20 53
+ 1.00184 1 0 ack 40 ------- 1 5.0 0.0 20 53
- 1.00184 1 0 ack 40 ------- 1 5.0 0.0 20 53
r 1.00368 1 0 ack 40 ------- 1 5.0 0.0 19 50
+ 1.00368 0 1 tcp 1040 ------- 1 0.0 5.0 39 63
- 1.00368 0 1 tcp 1040 ------- 1 0.0 5.0 39 63
- 1.00376 1 2 tcp 1040 ------- 1 0.0 5.0 29 45
r 1.00464 2 5 tcp 1040 ------- 1 0.0 5.0 24 39
+ 1.00464 5 2 ack 40 ------- 1 5.0 0.0 24 64
- 1.00464 5 2 ack 40 ------- 1 5.0 0.0 24 64
r 1.00536 0 1 tcp 1040 ------- 1 0.0 5.0 36 58
+ 1.00536 1 2 tcp 1040 ------- 1 0.0 5.0 36 58
r 1.00648 5 2 ack 40 ------- 1 5.0 0.0 23 62
+ 1.00648 2 1 ack 40 ------- 1 5.0 0.0 23 62
- 1.00648 2 1 ack 40 ------- 1 5.0 0.0 23 62
r 1.00712 1 2 tcp 1040 ------- 1 0.0 5.0 26 41
+ 1.00712 2 5 tcp 1040 ------- 1 0.0 5.0 26 41
- 1.00712 2 5 tcp 1040 ------- 1 0.0 5.0 26 41
r 1.00952 0 1 tcp 1040 ------- 1 0.0 5.0 37 60
+ 1.00952 1 2 tcp 1040 ------- 1 0.0 5.0 37 60
r 1.01016 2 1 ack 40 ------- 1 5.0 0.0 21 56
+ 1.01016 1 0 ack 40 ------- 1 5.0 0.0 21 56
- 1.01016 1 0 ack 40 ------- 1 5.0 0.0 21 56
r 1.012 1 0 ack 40 ------- 1 5.0 0.0 20 53
+ 1.012 0 1 tcp 1040 ------- 1 0.0 5.0 40 65
- 1.012 0 1 tcp 1040 ------- 1 0.0 5.0 40 65
- 1.01208 1 2 tcp 1040 ------- 1 0.0 5.0 30 46
r 1.01296 2 5 tcp 1040 ------- 1 0.0 5.0 25 40
+ 1.01296 5 2 ack 40 ------- 1 5.0 0.0 25 66
- 1.01296 5 2 ack 40 ------- 1 5.0 0.0 25 66
r 1.01368 0 1 tcp 1040 ------- 1 0.0 5.0 38 61
+ 1.01368 1 2 tcp 1040 ------- 1 0.0 5.0 38 61
r 1.0148 5 2 ack 40 ------- 1 5.0 0.0 24 64
+ 1.0148 2 1 ack 40 ------- 1 5.0 0.0 24 64
- 1.0148 2 1 ack 40 ------- 1 5.0 0.0 24 64
r 1.01544 1 2 tcp 1040 ------- 1 0.0 5.0 27 42
+ 1.01544 2 5 tcp 1040 ------- 1 0.0 5.0 27 42
- 1.01544 2 5 tcp 1040 ------- 1 0.0 5.0 27 42
r 1.01784 0 1 tcp 1040 ------- 1 0.0 5.0 39 63
+ 1.01784 1 2 tcp 1040 ------- 1 0.0 5.0 39 63
r 1.01848 2 1 ack 40 ------- 1 5.0 0.0 22 59
+ 1.01848 1 0 ack 40 ------- 1 5.0 0.0 22 59
- 1.01848 1 0 ack 40 ------- 1 5.0 0.0 22 59
r 1.02032 1 0 ack 40 ------- 1 5.0 0.0 21 56
+ 1.02032 0 1 tcp 1040 ------- 1 0.0 5.0 41 67
- 1.02032 0 1 tcp 1040 ------- 1 0.0 5.0 41 67
- 1.0204 1 2 tcp 1040 ------- 1 0.0 5.0 31 51
r 1.02128 2 5 tcp 1040 ------- 1 0.0 5.0 26 41
+ 1.02128 5 2 ack 40 ------- 1 5.0 0.0 26 68
- 1.02128 5 2 ack 40 ------- 1 5.0 0.0 26 68
r 1.02312 5 2 ack 40 ------- 1 5.0 0.0 25 66
+ 1.02312 2 1 ack 40 ------- 1 5.0 0.0 25 66
- 1.02312 2 1 ack 40 ------- 1 5.0 0.0 25 66
r 1.02376 1 2 tcp 1040 ------- 1 0.0 5.0 28 43
+ 1.02376 2 5 tcp 1040 ------- 1 0.0 5.0 28 43
- 1.02376 2 5 tcp 1040 ------- 1 0.0 5.0 28 43
r 1.02616 0 1 tcp 1040 ------- 1 0.0 5.0 40 65
+ 1.02616 1 2 tcp 1040 ------- 1 0.0 5.0 40 65
r 1.0268 2 1 ack 40 ------- 1 5.0 0.0 23 62
+ 1.0268 1 0 ack 40 ------- 1 5.0 0.0 23 62
- 1.0268 1 0 ack 40 ------- 1 5.0 0.0 23 62
r 1.02864 1 0 ack 40 ------- 1 5.0 0.0 22 59
+ 1.02864 0 1 tcp 1040 ------- 1 0.0 5.0 42 69
- 1.02864 0 1 tcp 1040 ------- 1 0.0 5.0 42 69
- 1.02872 1 2 tcp 1040 ------- 1 0.0 5.0 32 52
r 1.0296 2 5 tcp 1040 ------- 1 0.0 5.0 27 42
+ 1.0296 5 2 ack 40 ------- 1 5.0 0.0 27 70
- 1.0296 5 2 ack 40 ------- 1 5.0 0.0 27 70
r 1.03144 5 2 ack 40 ------- 1 5.0 0.0 26 68
+ 1.03144 2 1 ack 40 ------- 1 5.0 0.0 26 68
- 1.03144 2 1 ack 40 ------- 1 5.0 0.0 26 68
r 1.03208 1 2 tcp 1040 ------- 1 0.0 5.0 29 45
+ 1.03208 2 5 tcp 1040 ------- 1 0.0 5.0 29 45
- 1.03208 2 5 tcp 1040 ------- 1 0.0 5.0 29 45
r 1.03448 0 1 tcp 1040 ------- 1 0.0 5.0 41 67
+ 1.03448 1 2 tcp 1040 ------- 1 0.0 5.0 41 67
r 1.03512 2 1 ack 40 ------- 1 5.0 0.0 24 64
+ 1.03512 1 0 ack 40 ------- 1 5.0 0.0 24 64
- 1.03512 1 0 ack 40 ------- 1 5.0 0.0 24 64
r 1.03696 1 0 ack 40 ------- 1 5.0 0.0 23 62
+ 1.03696 0 1 tcp 1040 ------- 1 0.0 5.0 43 71
- 1.03696 0 1 tcp 1040 ------- 1 0.0 5.0 43 71
- 1.03704 1 2 tcp 1040 ------- 1 0.0 5.0 33 54
r 1.03792 2 5 tcp 1040 ------- 1 0.0 5.0 28 43
+ 1.03792 5 2 ack 40 ------- 1 5.0 0.0 28 72
- 1.03792 5 2 ack 40 ------- 1 5.0 0.0 28 72
r 1.03976 5 2 ack 40 ------- 1 5.0 0.0 27 70
+ 1.03976 2 1 ack 40 ------- 1 5.0 0.0 27 70
- 1.03976 2 1 ack 40 ------- 1 5.0 0.0 27 70
r 1.0404 1 2 tcp 1040 ------- 1 0.0 5.0 30 46
+ 1.0404 2 5 tcp 1040 ------- 1 0.0 5.0 30 46
- 1.0404 2 5 tcp 1040 ------- 1 0.0 5.0 30 46
r 1.0428 0 1 tcp 1040 ------- 1 0.0 5.0 42 69
+ 1.0428 1 2 tcp 1040 ------- 1 0.0 5.0 42 69
r 1.04344 2 1 ack 40 ------- 1 5.0 0.0 25 66
+ 1.04344 1 0 ack 40 ------- 1 5.0 0.0 25 66
- 1.04344 1 0 ack 40 ------- 1 5.0 0.0 25 66
r 1.04528 1 0 ack 40 ------- 1 5.0 0.0 24 64
+ 1.04528 0 1 tcp 1040 ------- 1 0.0 5.0 44 73
- 1.04528 0 1 tcp 1040 ------- 1 0.0 5.0 44 73
- 1.04536 1 2 tcp 1040 ------- 1 0.0 5.0 34 55
r 1.04624 2 5 tcp 1040 ------- 1 0.0 5.0 29 45
+ 1.04624 5 2 ack 40 ------- 1 5.0 0.0 29 74
- 1.04624 5 2 ack 40 ------- 1 5.0 0.0 29 74
r 1.04808 5 2 ack 40 ------- 1 5.0 0.0 28 72
+ 1.04808 2 1 ack 40 ------- 1 5.0 0.0 28 72
- 1.04808 2 1 ack 40 ------- 1 5.0 0.0 28 72
r 1.04872 1 2 tcp 1040 ------- 1 0.0 5.0 31 51
+ 1.04872 2 5 tcp 1040 ------- 1 0.0 5.0 31 51
- 1.04872 2 5 tcp 1040 ------- 1 0.0 5.0 31 51
r 1.05112 0 1 tcp 1040 ------- 1 0.0 5.0 43 71
+ 1.05112 1 2 tcp 1040 ------- 1 0.0 5.0 43 71
r 1.05176 2 1 ack 40 ------- 1 5.0 0.0 26 68
+ 1.05176 1 0 ack 40 ------- 1 5.0 0.0 26 68
- 1.05176 1 0 ack 40 ------- 1 5.0 0.0 26 68
r 1.0536 1 0 ack 40 ------- 1 5.0 0.0 25 66
+ 1.0536 0 1 tcp 1040 ------- 1 0.0 5.0 45 75
- 1.0536 0 1 tcp 1040 ------- 1 0.0 5.0 45 75
- 1.05368 1 2 tcp 1040 ------- 1 0.0 5.0 35 57
r 1.05456 2 5 tcp 1040 ------- 1 0.0 5.0 30 46
+ 1.05456 5 2 ack 40 ------- 1 5.0 0.0 30 76
- 1.05456 5 2 ack 40 ------- 1 5.0 0.0 30 76
r 1.0564 5 2 ack 40 ------- 1 5.0 0.0 29 74
+ 1.0564 2 1 ack 40 ------- 1 5.0 0.0 29 74
- 1.0564 2 1 ack 40 ------- 1 5.0 0.0 29 74
r 1.05704 1 2 tcp 1040 ------- 1 0.0 5.0 32 52
+ 1.05704 2 5 tcp 1040 ------- 1 0.0 5.0 32 52
- 1.05704 2 5 tcp 1040 ------- 1 0.0 5.0 32 52
r 1.05944 0 1 tcp 1040 ------- 1 0.0 5.0 44 73
+ 1.05944 1 2 tcp 1040 ------- 1 0.0 5.0 44 73
r 1.06008 2 1 ack 40 ------- 1 5.0 0.0 27 70
+ 1.06008 1 0 ack 40 ------- 1 5.0 0.0 27 70
- 1.06008 1 0 ack 40 ------- 1 5.0 0.0 27 70
r 1.06192 1 0 ack 40 ------- 1 5.0 0.0 26 68
+ 1.06192 0 1 tcp 1040 ------- 1 0.0 5.0 46 77
- 1.06192 0 1 tcp 1040 ------- 1 0.0 5.0 46 77
- 1.062 1 2 tcp 1040 ------- 1 0.0 5.0 36 58
r 1.06288 2 5 tcp 1040 ------- 1 0.0 5.0 31 51
+ 1.06288 5 2 ack 40 ------- 1 5.0 0.0 31 78
- 1.06288 5 2 ack 40 ------- 1 5.0 0.0 31 78
r 1.06472 5 2 ack 40 ------- 1 5.0 0.0 30 76
+ 1.06472 2 1 ack 40 ------- 1 5.0 0.0 30 76
- 1.06472 2 1 ack 40 ------- 1 5.0 0.0 30 76
r 1.06536 1 2 tcp 1040 ------- 1 0.0 5.0 33 54
+ 1.06536 2 5 tcp 1040 ------- 1 0.0 5.0 33 54
- 1.06536 2 5 tcp 1040 ------- 1 0.0 5.0 33 54
r 1.06776 0 1 tcp 1040 ------- 1 0.0 5.0 45 75
+ 1.06776 1 2 tcp 1040 ------- 1 0.0 5.0 45 75
r 1.0684 2 1 ack 40 ------- 1 5.0 0.0 28 72
+ 1.0684 1 0 ack 40 ------- 1 5.0 0.0 28 72
- 1.0684 1 0 ack 40 ------- 1 5.0 0.0 28 72
r 1.07024 1 0 ack 40 ------- 1 5.0 0.0 27 70
+ 1.07024 0 1 tcp 1040 ------- 1 0.0 5.0 47 79
- 1.07024 0 1 tcp 1040 ------- 1 0.0 5.0 47 79
- 1.07032 1 2 tcp 1040 ------- 1 0.0 5.0 37 60
r 1.0712 2 5 tcp 1040 ------- 1 0.0 5.0 32 52
+ 1.0712 5 2 ack 40 ------- 1 5.0 0.0 32 80
- 1.0712 5 2 ack 40 ------- 1 5.0 0.0 32 80
r 1.07304 5 2 ack 40 ------- 1 5.0 0.0 31 78
+ 1.07304 2 1 ack 40 ------- 1 5.0 0.0 31 78
- 1.07304 2 1 ack 40 ------- 1 5.0 0.0 31 78
r 1.07368 1 2 tcp 1040 ------- 1 0.0 5.0 34 55
+ 1.07368 2 5 tcp 1040 ------- 1 0.0 5.0 34 55
- 1.07368 2 5 tcp 1040 ------- 1 0.0 5.0 34 55
r 1.07608 0 1 tcp 1040 ------- 1 0.0 5.0 46 77
+ 1.07608 1 2 tcp 1040 ------- 1 0.0 5.0 46 77
r 1.07672 2 1 ack 40 ------- 1 5.0 0.0 29 74
+ 1.07672 1 0 ack 40 ------- 1 5.0 0.0 29 74
- 1.07672 1 0 ack 40 ------- 1 5.0 0.0 29 74
r 1.07856 1 0 ack 40 ------- 1 5.0 0.0 28 72
+ 1.07856 0 1 tcp 1040 ------- 1 0.0 5.0 48 81
- 1.07856 0 1 tcp 1040 ------- 1 0.0 5.0 48 81
- 1.07864 1 2 tcp 1040 ------- 1 0.0 5.0 38 61
r 1.07952 2 5 tcp 1040 ------- 1 0.0 5.0 33 54
+ 1.07952 5 2 ack 40 ------- 1 5.0 0.0 33 82
- 1.07952 5 2 ack 40 ------- 1 5.0 0.0 33 82
r 1.08136 5 2 ack 40 ------- 1 5.0 0.0 32 80
+ 1.08136 2 1 ack 40 ------- 1 5.0 0.0 32 80
- 1.08136 2 1 ack 40 ------- 1 5.0 0.0 32 80
r 1.082 1 2 tcp 1040 ------- 1 0.0 5.0 35 57
+ 1.082 2 5 tcp 1040 ------- 1 0.0 5.0 35 57
- 1.082 2 5 tcp 1040 ------- 1 0.0 5.0 35 57
r 1.0844 0 1 tcp 1040 ------- 1 0.0 5.0 47 79