V -t * -v 1.0a5 -a 0
A -t * -n 1 -p 0 -o 0xffffffff -c 31 -a 1
A -t * -h 1 -m 2147483647 -s 0
c -t * -i 1 -n Yellow
c -t * -i 2 -n Green
n -t * -a 0 -s 0 -S UP -v circle -c black -i black
n -t * -a 1 -s 1 -S UP -v circle -c black -i black
n -t * -a 2 -s 2 -S UP -v circle -c black -i black
n -t * -a 3 -s 3 -S UP -v circle -c black -i black
l -t * -s 0 -d 2 -S UP -r 2000000 -D 0.01 -c black
l -t * -s 1 -d 2 -S UP -r 2000000 -D 0.01 -c black
l -t * -s 2 -d 3 -S UP -r 2000000 -D 0.02 -c black
q -t * -s 3 -d 2 -a 0.5
q -t * -s 2 -d 3 -a 0.5
+ -t 0.1 -s 1 -d 2 -p cbr -e 1000 -c 2 -i 0 -a 2 -x {1.0 3.1 0 ------- null}
- -t 0.1 -s 1 -d 2 -p cbr -e 1000 -c 2 -i 0 -a 2 -x {1.0 3.1 0 ------- null}
h -t 0.1 -s 1 -d 2 -p cbr -e 1000 -c 2 -i 0 -a 2 -x {1.0 3.1 -1 ------- null}
+ -t 0.1 -s 1 -d 2 -p cbr -e 1000 -c 2 -i 1 -a 2 -x {1.0 3.1 1 ------- null}
+ -t 0.1 -s 1 -d 2 -p cbr -e 1000 -c 2 -i 2 -a 2 -x {1.0 3.1 2 ------- null}
- -t 0.104 -s 1 -d 2 -p cbr -e 1000 -c 2 -i 1 -a 2 -x {1.0 3.1 1 ------- null}
h -t 0.104 -s 1 -d 2 -p cbr -e 1000 -c 2 -i 1 -a 2 -x {1.0 3.1 -1 ------- null}
- -t 0.108 -s 1 -d 2 -p cbr -e 1000 -c 2 -i 2 -a 2 -x {1.0 3.1 2 ------- null}
h -t 0.108 -s 1 -d 2 -p cbr -e 1000 -c 2 -i 2 -a 2 -x {1.0 3.1 -1 ------- null}
+ -t 0.113333333333333 -s 1 -d 2 -p cbr -e 1000 -c 2 -i 3 -a 2 -x {1.0 3.1 3 ------- null}
- -t 0.113333333333333 -s 1 -d 2 -p cbr -e 1000 -c 2 -i 3 -a 2 -x {1.0 3.1 3 ------- null}
h -t 0.113333333333333 -s 1 -d 2 -p cbr -e 1000 -c 2 -i 3 -a 2 -x {1.0 3.1 -1 ------- null}
+ -t 0.113333333333333 -s 1 -d 2 -p cbr -e 1000 -c 2 -i 4 -a 2 -x {1.0 3.1 4 ------- null}
+ -t 0.113333333333333 -s 1 -d 2 -p cbr -e 1000 -c 2 -i 5 -a 2 -x {1.0 3.1 5 ------- null}
r -t 0.114 -s 1 -d 2 -p cbr -e 1000 -c 2 -i 0 -a 2 -x {1.0 3.1 0 ------- null}
+ -t 0.114 -s 2 -d 3 -p cbr -e 1000 -c 2 -i 0 -a 2 -x {1.0 3.1 0 ------- null}
- -t 0.114 -s 2 -d 3 -p cbr -e 1000 -c 2 -i 0 -a 2 -x {1.0 3.1 0 ------- null}
h -t 0.114 -s 2 -d 3 -p cbr -e 1000 -c 2 -i 0 -a 2 -x {1.0 3.1 -1 ------- null}
- -t 0.117333333333333 -s 1 -d 2 -p cbr -e 1000 -c 2 -i 4 -a 2 -x {1.0 3.1 4 ------- null}
h -t 0.117333333333333 -s 1 -d 2 -p cbr -e 1000 -c 2 -i 4 -a 2 -x {1.0 3.1 -1 ------- null}
r -t 0.118 -s 1 -d 2 -p cbr -e 1000 -c 2 -i 1 -a 2 -x {1.0 3.1 1 ------- null}
+ -t 0.118 -s 2 -d 3 -p cbr -e 1000 -c 2 -i 1 -a 2 -x {1.0 3.1 1 ------- null}
- -t 0.118 -s 2 -d 3 -p cbr -e 1000 -c 2 -i 1 -a 2 -x {1.0 3.1 1 ------- null}
h -t 0.118 -s 2 -d 3 -p cbr -e 1000 -c 2 -i 1 -a 2 -x {1.0 3.1 -1 ------- null}
- -t 0.121333333333333 -s 1 -d 2 -p cbr -e 1000 -c 2 -i 5 -a 2 -x {1.0 3.1 5 ------- null}
h -t 0.121333333333333 -s 1 -d 2 -p cbr -e 1000 -c 2 -i 5 -a 2 -x {1.0 3.1 -1 ------- null}
r -t 0.122 -s 1 -d 2 -p cbr -e 1000 -c 2 -i 2 -a 2 -x {1.0 3.1 2 ------- null}
+ -t 0.122 -s 2 -d 3 -p cbr -e 1000 -c 2 -i 2 -a 2 -x {1.0 3.1 2 ------- null}
- -t 0.122 -s 2 -d 3 -p cbr -e 1000 -c 2 -i 2 -a 2 -x {1.0 3.1 2 ------- null}
h -t 0.122 -s 2 -d 3 -p cbr -e 1000 -c 2 -i 2 -a 2 -x {1.0 3.1 -1 ------- null}
+ -t 0.126666666666667 -s 1 -d 2 -p cbr -e 1000 -c 2 -i 6 -a 2 -x {1.0 3.1 6 ------- null}
- -t 0.126666666666667 -s 1 -d 2 -p cbr -e 1000 -c 2 -i 6 -a 2 -x {1.0 3.1 6 ------- null}
h -t 0.126666666666667 -s 1 -d 2 -p cbr -e 1000 -c 2 -i 6 -a 2 -x {1.0 3.1 -1 ------- null}
+ -t 0.126666666666667 -s 1 -d 2 -p cbr -e 1000 -c 2 -i 7 -a 2 -x {1.0 3.1 7 ------- null}
+ -t 0.126666666666667 -s 1 -d 2 -p cbr -e 1000 -c 2 -i 8 -a 2 -x {1.0 3.1 8 ------- null}
r -t 0.127333333333333 -s 1 -d 2 -p cbr -e 1000 -c 2 -i 3 -a 2 -x {1.0 3.1 3 ------- null}
+ -t 0.127333333333333 -s 2 -d 3 -p cbr -e 1000 -c 2 -i 3 -a 2 -x {1.0 3.1 3 ------- null}
- -t 0.127333333333333 -s 2 -d 3 -p cbr -e 1000 -c 2 -i 3 -a 2 -x {1.0 3.1 3 ------- null}
h -t 0.127333333333333 -s 2 -d 3 -p cbr -e 1000 -c 2 -i 3 -a 2 -x {1.0 3.1 -1 ------- null}
- -t 0.130666666666667 -s 1 -d 2 -p cbr -e 1000 -c 2 -i 7 -a 2 -x {1.0 3.1 7 ------- null}
h -t 0.130666666666667 -s 1 -d 2 -p cbr -e 1000 -c 2 -i 7 -a 2 -x {1.0 3.1 -1 ------- null}
r -t 0.131333333333333 -s 1 -d 2 -p cbr -e 1000 -c 2 -i 4 -a 2 -x {1.0 3.1 4 ------- null}
+ -t 0.131333333333333 -s 2 -d 3 -p cbr -e 1000 -c 2 -i 4 -a 2 -x {1.0 3.1 4 ------- null}
- -t 0.131333333333333 -s 2 -d 3 -p cbr -e 1000 -c 2 -i 4 -a 2 -x {1.0 3.1 4 ------- null}
h -t 0.131333333333333 -s 2 -d 3 -p cbr -e 1000 -c 2 -i 4 -a 2 -x {1.0 3.1 -1 ------- null}
- -t 0.134666666666667 -s 1 -d 2 -p cbr -e 1000 -c 2 -i 8 -a 2 -x {1.0 3.1 8 ------- null}
h -t 0.134666666666667 -s 1 -d 2 -p cbr -e 1000 -c 2 -i 8 -a 2 -x {1.0 3.1 -1 ------- null}
r -t 0.135333333333333 -s 1 -d 2 -p cbr -e 1000 -c 2 -i 5 -a 2 -x {1.0 3.1 5 ------- null}
+ -t 0.135333333333333 -s 2 -d 3 -p cbr -e 1000 -c 2 -i 5 -a 2 -x {1.0 3.1 5 ------- null}
- -t 0.135333333333333 -s 2 -d 3 -p cbr -e 1000 -c 2 -i 5 -a 2 -x {1.0 3.1 5 ------- null}
h -t 0.135333333333333 -s 2 -d 3 -p cbr -e 1000 -c 2 -i 5 -a 2 -x {1.0 3.1 -1 ------- null}
r -t 0.138 -s 2 -d 3 -p cbr -e 1000 -c 2 -i 0 -a 2 -x {1.0 3.1 0 ------- null}
+ -t 0.14 -s 1 -d 2 -p cbr -e 1000 -c 2 -i 9 -a 2 -x {1.0 3.1 9 ------- null}
- -t 0.14 -s 1 -d 2 -p cbr -e 1000 -c 2 -i 9 -a 2 -x {1.0 3.1 9 ------- null}
h -t 0.14 -s 1 -d 2 -p cbr -e 1000 -c 2 -i 9 -a 2 -x {1.0 3.1 -1 ------- null}
+ -t 0.14 -s 1 -d 2 -p cbr -e 1000 -c 2 -i 10 -a 2 -x {1.0 3.1 10 ------- null}
+ -t 0.14 -s 1 -d 2 -p cbr -e 1000 -c 2 -i 11 -a 2 -x {1.0 3.1 11 ------- null}
r -t 0.140666666666667 -s 1 -d 2 -p cbr -e 1000 -c 2 -i 6 -a 2 -x {1.0 3.1 6 ------- null}
+ -t 0.140666666666667 -s 2 -d 3 -p cbr -e 1000 -c 2 -i 6 -a 2 -x {1.0 3.1 6 ------- null}
- -t 0.140666666666667 -s 2 -d 3 -p cbr -e 1000 -c 2 -i 6 -a 2 -x {1.0 3.1 6 ------- null}
h -t 0.140666666666667 -s 2 -d 3 -p cbr -e 1000 -c 2 -i 6 -a 2 -x {1.0 3.1 -1 ------- null}
r -t 0.142 -s 2 -d 3 -p cbr -e 1000 -c 2 -i 1 -a 2 -x {1.0 3.1 1 ------- null}
- -t 0.144 -s 1 -d 2 -p cbr -e 1000 -c 2 -i 10 -a 2 -x {1.0 3.1 10 ------- null}
h -t 0.144 -s 1 -d 2 -p cbr -e 1000 -c 2 -i 10 -a 2 -x {1.0 3.1 -1 ------- null}
r -t 0.144666666666667 -s 1 -d 2 -p cbr -e 1000 -c 2 -i 7 -a 2 -x {1.0 3.1 7 ------- null}
+ -t 0.144666666666667 -s 2 -d 3 -p cbr -e 1000 -c 2 -i 7 -a 2 -x {1.0 3.1 7 ------- null}
- -t 0.144666666666667 -s 2 -d 3 -p cbr -e 1000 -c 2 -i 7 -a 2 -x {1.0 3.1 7 ------- null}
h -t 0.144666666666667 -s 2 -d 3 -p cbr -e 1000 -c 2 -i 7 -a 2 -x {1.0 3.1 -1 ------- null}
r -t 0.146 -s 2 -d 3 -p cbr -e 1000 -c 2 -i 2 -a 2 -x {1.0 3.1 2 ------- null}
- -t 0.148 -s 1 -d 2 -p cbr -e 1000 -c 2 -i 11 -a 2 -x {1.0 3.1 11 ------- null}
h -t 0.148 -s 1 -d 2 -p cbr -e 1000 -c 2 -i 11 -a 2 -x {1.0 3.1 -1 ------- null}
r -t 0.148666666666667 -s 1 -d 2 -p cbr -e 1000 -c 2 -i 8 -a 2 -x {1.0 3.1 8 ------- null}
+ -t 0.148666666666667 -s 2 -d 3 -p cbr -e 1000 -c 2 -i 8 -a 2 -x {1.0 3.1 8 ------- null}
- -t 0.148666666666667 -s 2 -d 3 -p cbr -e 1000 -c 2 -i 8 -a 2 -x {1.0 3.1 8 ------- null}
h -t 0.148666666666667 -s 2 -d 3 -p cbr -e 1000 -c 2 -i 8 -a 2 -x {1.0 3.1 -1 ------- null}
r -t 0.151333333333333 -s 2 -d 3 -p cbr -e 1000 -c 2 -i 3 -a 2 -x {1.0 3.1 3 ------- null}
+ -t 0.153333333333333 -s 1 -d 2 -p cbr -e 1000 -c 2 -i 12 -a 2 -x {1.0 3.1 12 ------- null}
- -t 0.153333333333333 -s 1 -d 2 -p cbr -e 1000 -c 2 -i 12 -a 2 -x {1.0 3.1 12 ------- null}
h -t 0.153333333333333 -s 1 -d 2 -p cbr -e 1000 -c 2 -i 12 -a 2 -x {1.0 3.1 -1 ------- null}
+ -t 0.153333333333333 -s 1 -d 2 -p cbr -e 1000 -c 2 -i 13 -a 2 -x {1.0 3.1 13 ------- null}
+ -t 0.153333333333333 -s 1 -d 2 -p cbr -e 1000 -c 2 -i 14 -a 2 -x {1.0 3.1 14 ------- null}
r -t 0.154 -s 1 -d 2 -p cbr -e 1000 -c 2 -i 9 -a 2 -x {1.0 3.1 9 ------- null}
+ -t 0.154 -s 2 -d 3 -p cbr -e 1000 -c 2 -i 9 -a 2 -x {1.0 3.1 9 ------- null}
- -t 0.154 -s 2 -d 3 -p cbr -e 1000 -c 2 -i 9 -a 2 -x {1.0 3.1 9 ------- null}
h -t 0.154 -s 2 -d 3 -p cbr -e 1000 -c 2 -i 9 -a 2 -x {1.0 3.1 -1 ------- null}
r -t 0.155333333333333 -s 2 -d 3 -p cbr -e 1000 -c 2 -i 4 -a 2 -x {1.0 3.1 4 ------- null}
- -t 0.157333333333333 -s 1 -d 2 -p cbr -e 1000 -c 2 -i 13 -a 2 -x {1.0 3.1 13 ------- null}
h -t 0.157333333333333 -s 1 -d 2 -p cbr -e 1000 -c 2 -i 13 -a 2 -x {1.0 3.1 -1 ------- null}
r -t 0.158 -s 1 -d 2 -p cbr -e 1000 -c 2 -i 10 -a 2 -x {1.0 3.1 10 ------- null}
+ -t 0.158 -s 2 -d 3 -p cbr -e 1000 -c 2 -i 10 -a 2 -x {1.0 3.1 10 ------- null}
- -t 0.158 -s 2 -d 3 -p cbr -e 1000 -c 2 -i 10 -a 2 -x {1.0 3.1 10 ------- null}
h -t 0.158 -s 2 -d 3 -p cbr -e 1000 -c 2 -i 10 -a 2 -x {1.0 3.1 -1 ------- null}
r -t 0.159333333333333 -s 2 -d 3 -p cbr -e 1000 -c 2 -i 5 -a 2 -x {1.0 3.1 5 ------- null}
- -t 0.161333333333333 -s 1 -d 2 -p cbr -e 1000 -c 2 -i 14 -a 2 -x {1.0 3.1 14 ------- null}
h -t 0.161333333333333 -s 1 -d 2 -p cbr -e 1000 -c 2 -i 14 -a 2 -x {1.0 3.1 -1 ------- null}
r -t 0.162 -s 1 -d 2 -p cbr -e 1000 -c 2 -i 11 -a 2 -x {1.0 3.1 11 ------- null}
+ -t 0.162 -s 2 -d 3 -p cbr -e 1000 -c 2 -i 11 -a 2 -x {1.0 3.1 11 ------- null}
- -t 0.162 -s 2 -d 3 -p cbr -e 1000 -c 2 -i 11 -a 2 -x {1.0 3.1 11 ------- null}
h -t 0.162 -s 2 -d 3 -p cbr -e 1000 -c 2 -i 11 -a 2 -x {1.0 3.1 -1 ------- null}
r -t 0.164666666666667 -s 2 -d 3 -p cbr -e 1000 -c 2 -i 6 -a 2 -x {1.0 3.1 6 ------- null}
+ -t 0.166666666666667 -s 1 -d 2 -p cbr -e 1000 -c 2 -i 15 -a 2 -x {1.0 3.1 15 ------- null}
- -t 0.166666666666667 -s 1 -d 2 -p cbr -e 1000 -c 2 -i 15 -a 2 -x {1.0 3.1 15 ------- null}
h -t 0.166666666666667 -s 1 -d 2 -p cbr -e 1000 -c 2 -i 15 -a 2 -x {1.0 3.1 -1 ------- null}
+ -t 0.166666666666667 -s 1 -d 2 -p cbr -e 1000 -c 2 -i 16 -a 2 -x {1.0 3.1 16 ------- null}
+ -t 0.166666666666667 -s 1 -d 2 -p cbr -e 1000 -c 2 -i 17 -a 2 -x {1.0 3.1 17 ------- null}
r -t 0.167333333333333 -s 1 -d 2 -p cbr -e 1000 -c 2 -i 12 -a 2 -x {1.0 3.1 12 ------- null}
+ -t 0.167333333333333 -s 2 -d 3 -p cbr -e 1000 -c 2 -i 12 -a 2 -x {1.0 3.1 12 ------- null}
- -t 0.167333333333333 -s 2 -d 3 -p cbr -e 1000 -c 2 -i 12 -a 2 -x {1.0 3.1 12 ------- null}
h -t 0.167333333333333 -s 2 -d 3 -p cbr -e 1000 -c 2 -i 12 -a 2 -x {1.0 3.1 -1 ------- null}
r -t 0.168666666666667 -s 2 -d 3 -p cbr -e 1000 -c 2 -i 7 -a 2 -x {1.0 3.1 7 ------- null}
- -t 0.170666666666667 -s 1 -d 2 -p cbr -e 1000 -c 2 -i 16 -a 2 -x {1.0 3.1 16 ------- null}
h -t 0.170666666666667 -s 1 -d 2 -p cbr -e 1000 -c 2 -i 16 -a 2 -x {1.0 3.1 -1 ------- null}
r -t 0.171333333333333 -s 1 -d 2 -p cbr -e 1000 -c 2 -i 13 -a 2 -x {1.0 3.1 13 ------- null}
+ -t 0.171333333333333 -s 2 -d 3 -p cbr -e 1000 -c 2 -i 13 -a 2 -x {1.0 3.1 13 ------- null}
- -t 0.171333333333333 -s 2 -d 3 -p cbr -e 1000 -c 2 -i 13 -a 2 -x {1.0 3.1 13 ------- null}
h -t 0.171333333333333 -s 2 -d 3 -p cbr -e 1000 -c 2 -i 13 -a 2 -x {1.0 3.1 -1 ------- null}
r -t 0.172666666666667 -s 2 -d 3 -p cbr -e 1000 -c 2 -i 8 -a 2 -x {1.0 3.1 8 ------- null}
- -t 0.174666666666667 -s 1 -d 2 -p cbr -e 1000 -c 2 -i 17 -a 2 -x {1.0 3.1 17 ------- null}
h -t 0.174666666666667 -s 1 -d 2 -p cbr -e 1000 -c 2 -i 17 -a 2 -x {1.0 3.1 -1 ------- null}
r -t 0.175333333333333 -s 1 -d 2 -p cbr -e 1000 -c 2 -i 14 -a 2 -x {1.0 3.1 14 ------- null}
+ -t 0.175333333333333 -s 2 -d 3 -p cbr -e 1000 -c 2 -i 14 -a 2 -x {1.0 3.1 14 ------- null}
- -t 0.175333333333333 -s 2 -d 3 -p cbr -e 1000 -c 2 -i 14 -a 2 -x {1.0 3.1 14 ------- null}
h -t 0.175333333333333 -s 2 -d 3 -p cbr -e 1000 -c 2 -i 14 -a 2 -x {1.0 3.1 -1 ------- null}
r -t 0.178 -s 2 -d 3 -p cbr -e 1000 -c 2 -i 9 -a 2 -x {1.0 3.1 9 ------- null}
+ -t 0.18 -s 1 -d 2 -p cbr -e 1000 -c 2 -i 18 -a 2 -x {1.0 3.1 18 ------- null}
- -t 0.18 -s 1 -d 2 -p cbr -e 1000 -c 2 -i 18 -a 2 -x {1.0 3.1 18 ------- null}
h -t 0.18 -s 1 -d 2 -p cbr -e 1000 -c 2 -i 18 -a 2 -x {1.0 3.1 -1 ------- null}
+ -t 0.18 -s 1 -d 2 -p cbr -e 1000 -c 2 -i 19 -a 2 -x {1.0 3.1 19 ------- null}
+ -t 0.18 -s 1 -d 2 -p cbr -e 1000 -c 2 -i 20 -a 2 -x {1.0 3.1 20 ------- null}
r -t 0.180666666666667 -s 1 -d 2 -p cbr -e 1000 -c 2 -i 15 -a 2 -x {1.0 3.1 15 ------- null}
+ -t 0.180666666666667 -s 2 -d 3 -p cbr -e 1000 -c 2 -i 15 -a 2 -x {1.0 3.1 15 ------- null}
- -t 0.180666666666667 -s 2 -d 3 -p cbr -e 1000 -c 2 -i 15 -a 2 -x {1.0 3.1 15 ------- null}
h -t 0.180666666666667 -s 2 -d 3 -p cbr -e 1000 -c 2 -i 15 -a 2 -x {1.0 3.1 -1 ------- null}
r -t 0.182 -s 2 -d 3 -p cbr -e 1000 -c 2 -i 10 -a 2 -x {1.0 3.1 10 ------- null}
- -t 0.184 -s 1 -d 2 -p cbr -e 1000 -c 2 -i 19 -a 2 -x {1.0 3.1 19 ------- null}
h -t 0.184 -s 1 -d 2 -p cbr -e 1000 -c 2 -i 19 -a 2 -x {1.0 3.1 -1 ------- null}
r -t 0.184666666666667 -s 1 -d 2 -p cbr -e 1000 -c 2 -i 16 -a 2 -x {1.0 3.1 16 ------- null}
+ -t 0.184666666666667 -s 2 -d 3 -p cbr -e 1000 -c 2 -i 16 -a 2 -x {1.0 3.1 16 ------- null}
- -t 0.184666666666667 -s 2 -d 3 -p cbr -e 1000 -c 2 -i 16 -a 2 -x {1.0 3.1 16 ------- null}
h -t 0.184666666666667 -s 2 -d 3 -p cbr -e 1000 -c 2 -i 16 -a 2 -x {1.0 3.1 -1 ------- null}
r -t 0.186 -s 2 -d 3 -p cbr -e 1000 -c 2 -i 11 -a 2 -x {1.0 3.1 11 ------- null}
- -t 0.188 -s 1 -d 2 -p cbr -e 1000 -c 2 -i 20 -a 2 -x {1.0 3.1 20 ------- null}
h -t 0.188 -s 1 -d 2 -p cbr -e 1000 -c 2 -i 20 -a 2 -x {1.0 3.1 -1 ------- null}
r -t 0.188666666666667 -s 1 -d 2 -p cbr -e 1000 -c 2 -i 17 -a 2 -x {1.0 3.1 17 ------- null}
+ -t 0.188666666666667 -s 2 -d 3 -p cbr -e 1000 -c 2 -i 17 -a 2 -x {1.0 3.1 17 ------- null}
- -t 0.188666666666667 -s 2 -d 3 -p cbr -e 1000 -c 2 -i 17 -a 2 -x {1.0 3.1 17 ------- null}
h -t 0.188666666666667 -s 2 -d 3 -p cbr -e 1000 -c 2 -i 17 -a 2 -x {1.0 3.1 -1 ------- null}
r -t 0.191333333333333 -s 2 -d 3 -p cbr -e 1000 -c 2 -i 12 -a 2 -x {1.0 3.1 12 ------- null}
+ -t 0.193333333333333 -s 1 -d 2 -p cbr -e 1000 -c 2 -i 21 -a 2 -x {1.0 3.1 21 ------- null}
- -t 0.193333333333333 -s 1 -d 2 -p cbr -e 1000 -c 2 -i 21 -a 2 -x {1.0 3.1 21 ------- null}
h -t 0.193333333333333 -s 1 -d 2 -p cbr -e 1000 -c 2 -i 21 -a 2 -x {1.0 3.1 -1 ------- null}
+ -t 0.193333333333333 -s 1 -d 2 -p cbr -e 1000 -c 2 -i 22 -a 2 -x {1.0 3.1 22 ------- null}
+ -t 0.193333333333333 -s 1 -d 2 -p cbr -e 1000 -c 2 -i 23 -a 2 -x {1.0 3.1 23 ------- null}
r -t 0.194 -s 1 -d 2 -p cbr -e 1000 -c 2 -i 18 -a 2 -x {1.0 3.1 18 ------- null}
+ -t 0.194 -s 2 -d 3 -p cbr -e 1000 -c 2 -i 18 -a 2 -x {1.0 3.1 18 ------- null}
- -t 0.194 -s 2 -d 3 -p cbr -e 1000 -c 2 -i 18 -a 2 -x {1.0 3.1 18 ------- null}
h -t 0.194 -s 2 -d 3 -p cbr -e 1000 -c 2 -i 18 -a 2 -x {1.0 3.1 -1 ------- null}
r -t 0.195333333333333 -s 2 -d 3 -p cbr -e 1000 -c 2 -i 13 -a 2 -x {1.0 3.1 13 ------- null}
- -t 0.197333333333333 -s 1 -d 2 -p cbr -e 1000 -c 2 -i 22 -a 2 -x {1.0 3.1 22 ------- null}
h -t 0.197333333333333 -s 1 -d 2 -p cbr -e 1000 -c 2 -i 22 -a 2 -x {1.0 3.1 -1 ------- null}
r -t 0.198 -s 1 -d 2 -p cbr -e 1000 -c 2 -i 19 -a 2 -x {1.0 3.1 19 ------- null}
+ -t 0.198 -s 2 -d 3 -p cbr -e 1000 -c 2 -i 19 -a 2 -x {1.0 3.1 19 ------- null}
- -t 0.198 -s 2 -d 3 -p cbr -e 1000 -c 2 -i 19 -a 2 -x {1.0 3.1 19 ------- null}
h -t 0.198 -s 2 -d 3 -p cbr -e 1000 -c 2 -i 19 -a 2 -x {1.0 3.1 -1 ------- null}
r -t 0.199333333333333 -s 2 -d 3 -p cbr -e 1000 -c 2 -i 14 -a 2 -x {1.0 3.1 14 ------- null}
- -t 0.201333333333333 -s 1 -d 2 -p cbr -e 1000 -c 2 -i 23 -a 2 -x {1.0 3.1 23 ------- null}
h -t 0.201333333333333 -s 1 -d 2 -p cbr -e 1000 -c 2 -i 23 -a 2 -x {1.0 3.1 -1 ------- null}
r -t 0.202 -s 1 -d 2 -p cbr -e 1000 -c 2 -i 20 -a 2 -x {1.0 3.1 20 ------- null}
+ -t 0.202 -s 2 -d 3 -p cbr -e 1000 -c 2 -i 20 -a 2 -x {1.0 3.1 20 ------- null}
- -t 0.202 -s 2 -d 3 -p cbr -e 1000 -c 2 -i 20 -a 2 -x {1.0 3.1 20 ------- null}
h -t 0.202 -s 2 -d 3 -p cbr -e 1000 -c 2 -i 20 -a 2 -x {1.0 3.1 -1 ------- null}
r -t 0.204666666666667 -s 2 -d 3 -p cbr -e 1000 -c 2 -i 15 -a 2 -x {1.0 3.1 15 ------- null}
+ -t 0.206666666666667 -s 1 -d 2 -p cbr -e 1000 -c 2 -i 24 -a 2 -x {1.0 3.1 24 ------- null}
- -t 0.206666666666667 -s 1 -d 2 -p cbr -e 1000 -c 2 -i 24 -a 2 -x {1.0 3.1 24 ------- null}
h -t 0.206666666666667 -s 1 -d 2 -p cbr -e 1000 -c 2 -i 24 -a 2 -x {1.0 3.1 -1 ------- null}
+ -t 0.206666666666667 -s 1 -d 2 -p cbr -e 1000 -c 2 -i 25 -a 2 -x {1.0 3.1 25 ------- null}
+ -t 0.206666666666667 -s 1 -d 2 -p cbr -e 1000 -c 2 -i 26 -a 2 -x {1.0 3.1 26 ------- null}
r -t 0.207333333333333 -s 1 -d 2 -p cbr -e 1000 -c 2 -i 21 -a 2 -x {1.0 3.1 21 ------- null}
+ -t 0.207333333333333 -s 2 -d 3 -p cbr -e 1000 -c 2 -i 21 -a 2 -x {1.0 3.1 21 ------- null}
- -t 0.207333333333333 -s 2 -d 3 -p cbr -e 1000 -c 2 -i 21 -a 2 -x {1.0 3.1 21 ------- null}
h -t 0.207333333333333 -s 2 -d 3 -p cbr -e 1000 -c 2 -i 21 -a 2 -x {1.0 3.1 -1 ------- null}
r -t 0.208666666666667 -s 2 -d 3 -p cbr -e 1000 -c 2 -i 16 -a 2 -x {1.0 3.1 16 ------- null}
- -t 0.210666666666667 -s 1 -d 2 -p cbr -e 1000 -c 2 -i 25 -a 2 -x {1.0 3.1 25 ------- null}
h -t 0.210666666666667 -s 1 -d 2 -p cbr -e 1000 -c 2 -i 25 -a 2 -x {1.0 3.1 -1 ------- null}
r -t 0.211333333333333 -s 1 -d 2 -p cbr -e 1000 -c 2 -i 22 -a 2 -x {1.0 3.1 22 ------- null}
+ -t 0.211333333333333 -s 2 -d 3 -p cbr -e 1000 -c 2 -i 22 -a 2 -x {1.0 3.1 22 ------- null}
- -t 0.211333333333333 -s 2 -d 3 -p cbr -e 1000 -c 2 -i 22 -a 2 -x {1.0 3.1 22 ------- null}
h -t 0.211333333333333 -s 2 -d 3 -p cbr -e 1000 -c 2 -i 22 -a 2 -x {1.0 3.1 -1 ------- null}
r -t 0.212666666666667 -s 2 -d 3 -p cbr -e 1000 -c 2 -i 17 -a 2 -x {1.0 3.1 17 ------- null}
- -t 0.214666666666667 -s 1 -d 2 -p cbr -e 1000 -c 2 -i 26 -a 2 -x {1.0 3.1 26 ------- null}
h -t 0.214666666666667 -s 1 -d 2 -p cbr -e 1000 -c 2 -i 26 -a 2 -x {1.0 3.1 -1 ------- null}
r -t 0.215333333333333 -s 1 -d 2 -p cbr -e 1000 -c 2 -i 23 -a 2 -x {1.0 3.1 23 ------- null}
+ -t 0.215333333333333 -s 2 -d 3 -p cbr -e 1000 -c 2 -i 23 -a 2 -x {1.0 3.1 23 ------- null}
- -t 0.215333333333333 -s 2 -d 3 -p cbr -e 1000 -c 2 -i 23 -a 2 -x {1.0 3.1 23 ------- null}
h -t 0.215333333333333 -s 2 -d 3 -p cbr -e 1000 -c 2 -i 23 -a 2 -x {1.0 3.1 -1 ------- null}
r -t 0.218 -s 2 -d 3 -p cbr -e 1000 -c 2 -i 18 -a 2 -x {1.0 3.1 18 ------- null}
+ -t 0.22 -s 1 -d 2 -p cbr -e 1000 -c 2 -i 27 -a 2 -x {1.0 3.1 27 ------- null}
- -t 0.22 -s 1 -d 2 -p cbr -e 1000 -c 2 -i 27 -a 2 -x {1.0 3.1 27 ------- null}
h -t 0.22 -s 1 -d 2 -p cbr -e 1000 -c 2 -i 27 -a 2 -x {1.0 3.1 -1 ------- null}
+ -t 0.22 -s 1 -d 2 -p cbr -e 1000 -c 2 -i 28 -a 2 -x {1.0 3.1 28 ------- null}
+ -t 0.22 -s 1 -d 2 -p cbr -e 1000 -c 2 -i 29 -a 2 -x {1.0 3.1 29 ------- null}
r -t 0.220666666666667 -s 1 -d 2 -p cbr -e 1000 -c 2 -i 24 -a 2 -x {1.0 3.1 24 ------- null}
+ -t 0.220666666666667 -s 2 -d 3 -p cbr -e 1000 -c 2 -i 24 -a 2 -x {1.0 3.1 24 ------- null}
- -t 0.220666666666667 -s 2 -d 3 -p cbr -e 1000 -c 2 -i 24 -a 2 -x {1.0 3.1 24 ------- null}
h -t 0.220666666666667 -s 2 -d 3 -p cbr -e 1000 -c 2 -i 24 -a 2 -x {1.0 3.1 -1 ------- null}
r -t 0.222 -s 2 -d 3 -p cbr -e 1000 -c 2 -i 19 -a 2 -x {1.0 3.1 19 ------- null}
- -t 0.224 -s 1 -d 2 -p cbr -e 1000 -c 2 -i 28 -a 2 -x {1.0 3.1 28 ------- null}
h -t 0.224 -s 1 -d 2 -p cbr -e 1000 -c 2 -i 28 -a 2 -x {1.0 3.1 -1 ------- null}
r -t 0.224666666666667 -s 1 -d 2 -p cbr -e 1000 -c 2 -i 25 -a 2 -x {1.0 3.1 25 ------- null}
+ -t 0.224666666666667 -s 2 -d 3 -p cbr -e 1000 -c 2 -i 25 -a 2 -x {1.0 3.1 25 ------- null}
- -t 0.224666666666667 -s 2 -d 3 -p cbr -e 1000 -c 2 -i 25 -a 2 -x {1.0 3.1 25 ------- null}
h -t 0.224666666666667 -s 2 -d 3 -p cbr -e 1000 -c 2 -i 25 -a 2 -x {1.0 3.1 -1 ------- null}
r -t 0.226 -s 2 -d 3 -p cbr -e 1000 -c 2 -i 20 -a 2 -x {1.0 3.1 20 ------- null}
- -t 0.228 -s 1 -d 2 -p cbr -e 1000 -c 2 -i 29 -a 2 -x {1.0 3.1 29 ------- null}
h -t 0.228 -s 1 -d 2 -p cbr -e 1000 -c 2 -i 29 -a 2 -x {1.0 3.1 -1 ------- null}
r -t 0.228666666666667 -s 1 -d 2 -p cbr -e 1000 -c 2 -i 26 -a 2 -x {1.0 3.1 26 ------- null}
+ -t 0.228666666666667 -s 2 -d 3 -p cbr -e 1000 -c 2 -i 26 -a 2 -x {1.0 3.1 26 ------- null}
- -t 0.228666666666667 -s 2 -d 3 -p cbr -e 1000 -c 2 -i 26 -a 2 -x {1.0 3.1 26 ------- null}
h -t 0.228666666666667 -s 2 -d 3 -p cbr -e 1000 -c 2 -i 26 -a 2 -x {1.0 3.1 -1 ------- null}
r -t 0.231333333333333 -s 2 -d 3 -p cbr -e 1000 -c 2 -i 21 -a 2 -x {1.0 3.1 21 ------- null}
+ -t 0.233333333333333 -s 1 -d 2 -p cbr -e 1000 -c 2 -i 30 -a 2 -x {1.0 3.1 30 ------- null}
- -t 0.233333333333333 -s 1 -d 2 -p cbr -e 1000 -c 2 -i 30 -a 2 -x {1.0 3.1 30 ------- null}
h -t 0.233333333333333 -s 1 -d 2 -p cbr -e 1000 -c 2 -i 30 -a 2 -x {1.0 3.1 -1 ------- null}
+ -t 0.233333333333333 -s 1 -d 2 -p cbr -e 1000 -c 2 -i 31 -a 2 -x {1.0 3.1 31 ------- null}
+ -t 0.233333333333333 -s 1 -d 2 -p cbr -e 1000 -c 2 -i 32 -a 2 -x {1.0 3.1 32 ------- null}
r -t 0.234 -s 1 -d 2 -p cbr -e 1000 -c 2 -i 27 -a 2 -x {1.0 3.1 27 ------- null}
+ -t 0.234 -s 2 -d 3 -p cbr -e 1000 -c 2 -i 27 -a 2 -x {1.0 3.1 27 ------- null}
- -t 0.234 -s 2 -d 3 -p cbr -e 1000 -c 2 -i 27 -a 2 -x {1.0 3.1 27 ------- null}
h -t 0.234 -s 2 -d 3 -p cbr -e 1000 -c 2 -i 27 -a 2 -x {1.0 3.1 -1 ------- null}
r -t 0.235333333333333 -s 2 -d 3 -p cbr -e 1000 -c 2 -i 22 -a 2 -x {1.0 3.1 22 ------- null}
- -t 0.237333333333333 -s 1 -d 2 -p cbr -e 1000 -c 2 -i 31 -a 2 -x {1.0 3.1 31 ------- null}
h -t 0.237333333333333 -s 1 -d 2 -p cbr -e 1000 -c 2 -i 31 -a 2 -x {1.0 3.1 -1 ------- null}
r -t 0.238 -s 1 -d 2 -p cbr -e 1000 -c 2 -i 28 -a 2 -x {1.0 3.1 28 ------- null}
+ -t 0.238 -s 2 -d 3 -p cbr -e 1000 -c 2 -i 28 -a 2 -x {1.0 3.1 28 ------- null}
- -t 0.238 -s 2 -d 3 -p cbr -e 1000 -c 2 -i 28 -a 2 -x {1.0 3.1 28 ------- null}
h -t 0.238 -s 2 -d 3 -p cbr -e 1000 -c 2 -i 28 -a 2 -x {1.0 3.1 -1 ------- null}
r -t 0.239333333333333 -s 2 -d 3 -p cbr -e 1000 -c 2 -i 23 -a 2 -x {1.0 3.1 23 ------- null}
- -t 0.241333333333333 -s 1 -d 2 -p cbr -e 1000 -c 2 -i 32 -a 2 -x {1.0 3.1 32 ------- null}
h -t 0.241333333333333 -s 1 -d 2 -p cbr -e 1000 -c 2 -i 32 -a 2 -x {1.0 3.1 -1 ------- null}
r -t 0.242 -s 1 -d 2 -p cbr -e 1000 -c 2 -i 29 -a 2 -x {1.0 3.1 29 ------- null}
+ -t 0.242 -s 2 -d 3 -p cbr -e 1000 -c 2 -i 29 -a 2 -x {1.0 3.1 29 ------- null}
- -t 0.242 -s 2 -d 3 -p cbr -e 1000 -c 2 -i 29 -a 2 -x {1.0 3.1 29 ------- null}
h -t 0.242 -s 2 -d 3 -p cbr -e 1000 -c 2 -i 29 -a 2 -x {1.0 3.1 -1 ------- null}
r -t 0.244666666666667 -s 2 -d 3 -p cbr -e 1000 -c 2 -i 24 -a 2 -x {1.0 3.1 24 ------- null}
+ -t 0.246666666666667 -s 1 -d 2 -p cbr -e 1000 -c 2 -i 33 -a 2 -x {1.0 3.1 33 ------- null}
- -t 0.246666666666667 -s 1 -d 2 -p cbr -e 1000 -c 2 -i 33 -a 2 -x {1.0 3.1 33 ------- null}
h -t 0.246666666666667 -s 1 -d 2 -p cbr -e 1000 -c 2 -i 33 -a 2 -x {1.0 3.1 -1 ------- null}
+ -t 0.246666666666667 -s 1 -d 2 -p cbr -e 1000 -c 2 -i 34 -a 2 -x {1.0 3.1 34 ------- null}
+ -t 0.246666666666667 -s 1 -d 2 -p cbr -e 1000 -c 2 -i 35 -a 2 -x {1.0 3.1 35 ------- null}
r -t 0.247333333333333 -s 1 -d 2 -p cbr -e 1000 -c 2 -i 30 -a 2 -x {1.0 3.1 30 ------- null}
+ -t 0.247333333333333 -s 2 -d 3 -p cbr -e 1000 -c 2 -i 30 -a 2 -x {1.0 3.1 30 ------- null}
- -t 0.247333333333333 -s 2 -d 3 -p cbr -e 1000 -c 2 -i 30 -a 2 -x {1.0 3.1 30 ------- null}
h -t 0.247333333333333 -s 2 -d 3 -p cbr -e 1000 -c 2 -i 30 -a 2 -x {1.0 3.1 -1 ------- null}
r -t 0.248666666666667 -s 2 -d 3 -p cbr -e 1000 -c 2 -i 25 -a 2 -x {1.0 3.1 25 ------- null}
- -t 0.250666666666667 -s 1 -d 2 -p cbr -e 1000 -c 2 -i 34 -a 2 -x {1.0 3.1 34 ------- null}
h -t 0.250666666666667 -s 1 -d 2 -p cbr -e 1000 -c 2 -i 34 -a 2 -x {1.0 3.1 -1 ------- null}
r -t 0.251333333333333 -s 1 -d 2 -p cbr -e 1000 -c 2 -i 31 -a 2 -x {1.0 3.1 31 ------- null}
+ -t 0.251333333333333 -s 2 -d 3 -p cbr -e 1000 -c 2 -i 31 -a 2 -x {1.0 3.1 31 ------- null}
- -t 0.251333333333333 -s 2 -d 3 -p cbr -e 1000 -c 2 -i 31 -a 2 -x {1.0 3.1 31 ------- null}
h -t 0.251333333333333 -s 2 -d 3 -p cbr -e 1000 -c 2 -i 31 -a 2 -x {1.0 3.1 -1 ------- null}
r -t 0.252666666666667 -s 2 -d 3 -p cbr -e 1000 -c 2 -i 26 -a 2 -x {1.0 3.1 26 ------- null}
- -t 0.254666666666667 -s 1 -d 2 -p cbr -e 1000 -c 2 -i 35 -a 2 -x {1.0 3.1 35 ------- null}
h -t 0.254666666666667 -s 1 -d 2 -p cbr -e 1000 -c 2 -i 35 -a 2 -x {1.0 3.1 -1 ------- null}
r -t 0.255333333333333 -s 1 -d 2 -p cbr -e 1000 -c 2 -i 32 -a 2 -x {1.0 3.1 32 ------- null}
+ -t 0.255333333333333 -s 2 -d 3 -p cbr -e 1000 -c 2 -i 32 -a 2 -x {1.0 3.1 32 ------- null}
- -t 0.255333333333333 -s 2 -d 3 -p cbr -e 1000 -c 2 -i 32 -a 2 -x {1.0 3.1 32 ------- null}
h -t 0.255333333333333 -s 2 -d 3 -p cbr -e 1000 -c 2 -i 32 -a 2 -x {1.0 3.1 -1 ------- null}
r -t 0.258 -s 2 -d 3 -p cbr -e 1000 -c 2 -i 27 -a 2 -x {1.0 3.1 27 ------- null}
+ -t 0.26 -s 1 -d 2 -p cbr -e 1000 -c 2 -i 36 -a 2 -x {1.0 3.1 36 ------- null}
- -t 0.26 -s 1 -d 2 -p cbr -e 1000 -c 2 -i 36 -a 2 -x {1.0 3.1 36 ------- null}
h -t 0.26 -s 1 -d 2 -p cbr -e 1000 -c 2 -i 36 -a 2 -x {1.0 3.1 -1 ------- null}
+ -t 0.26 -s 1 -d 2 -p cbr -e 1000 -c 2 -i 37 -a 2 -x {1.0 3.1 37 ------- null}
+ -t 0.26 -s 1 -d 2 -p cbr -e 1000 -c 2 -i 38 -a 2 -x {1.0 3.1 38 ------- null}
r -t 0.260666666666667 -s 1 -d 2 -p cbr -e 1000 -c 2 -i 33 -a 2 -x {1.0 3.1 33 ------- null}
+ -t 0.260666666666667 -s 2 -d 3 -p cbr -e 1000 -c 2 -i 33 -a 2 -x {1.0 3.1 33 ------- null}
- -t 0.260666666666667 -s 2 -d 3 -p cbr -e 1000 -c 2 -i 33 -a 2 -x {1.0 3.1 33 ------- null}
h -t 0.260666666666667 -s 2 -d 3 -p cbr -e 1000 -c 2 -i 33 -a 2 -x {1.0 3.1 -1 ------- null}
r -t 0.262 -s 2 -d 3 -p cbr -e 1000 -c 2 -i 28 -a 2 -x {1.0 3.1 28 ------- null}
- -t 0.264 -s 1 -d 2 -p cbr -e 1000 -c 2 -i 37 -a 2 -x {1.0 3.1 37 ------- null}
h -t 0.264 -s 1 -d 2 -p cbr -e 1000 -c 2 -i 37 -a 2 -x {1.0 3.1 -1 ------- null}
r -t 0.264666666666667 -s 1 -d 2 -p cbr -e 1000 -c 2 -i 34 -a 2 -x {1.0 3.1 34 ------- null}
+ -t 0.264666666666667 -s 2 -d 3 -p cbr -e 1000 -c 2 -i 34 -a 2 -x {1.0 3.1 34 ------- null}
- -t 0.264666666666667 -s 2 -d 3 -p cbr -e 1000 -c 2 -i 34 -a 2 -x {1.0 3.1 34 ------- null}
h -t 0.264666666666667 -s 2 -d 3 -p cbr -e 1000 -c 2 -i 34 -a 2 -x {1.0 3.1 -1 ------- null}
r -t 0.266 -s 2 -d 3 -p cbr -e 1000 -c 2 -i 29 -a 2 -x {1.0 3.1 29 ------- null}
- -t 0.268 -s 1 -d 2 -p cbr -e 1000 -c 2 -i 38 -a 2 -x {1.0 3.1 38 ------- null}
h -t 0.268 -s 1 -d 2 -p cbr -e 1000 -c 2 -i 38 -a 2 -x {1.0 3.1 -1 ------- null}
r -t 0.268666666666667 -s 1 -d 2 -p cbr -e 1000 -c 2 -i 35 -a 2 -x {1.0 3.1 35 ------- null}
+ -t 0.268666666666667 -s 2 -d 3 -p cbr -e 1000 -c 2 -i 35 -a 2 -x {1.0 3.1 35 ------- null}
- -t 0.268666666666667 -s 2 -d 3 -p cbr -e 1000 -c 2 -i 35 -a 2 -x {1.0 3.1 35 ------- null}
h -t 0.268666666666667 -s 2 -d 3 -p cbr -e 1000 -c 2 -i 35 -a 2 -x {1.0 3.1 -1 ------- null}
r -t 0.271333333333333 -s 2 -d 3 -p cbr -e 1000 -c 2 -i 30 -a 2 -x {1.0 3.1 30 ------- null}
+ -t 0.273333333333333 -s 1 -d 2 -p cbr -e 1000 -c 2 -i 39 -a 2 -x {1.0 3.1 39 ------- null}
- -t 0.273333333333333 -s 1 -d 2 -p cbr -e 1000 -c 2 -i 39 -a 2 -x {1.0 3.1 39 ------- null}
h -t 0.273333333333333 -s 1 -d 2 -p cbr -e 1000 -c 2 -i 39 -a 2 -x {1.0 3.1 -1 ------- null}
+ -t 0.273333333333333 -s 1 -d 2 -p cbr -e 1000 -c 2 -i 40 -a 2 -x {1.0 3.1 40 ------- null}
+ -t 0.273333333333333 -s 1 -d 2 -p cbr -e 1000 -c 2 -i 41 -a 2 -x {1.0 3.1 41 ------- null}
r -t 0.274 -s 1 -d 2 -p cbr -e 1000 -c 2 -i 36 -a 2 -x {1.0 3.1 36 ------- null}
+ -t 0.274 -s 2 -d 3 -p cbr -e 1000 -c 2 -i 36 -a 2 -x {1.0 3.1 36 ------- null}
- -t 0.274 -s 2 -d 3 -p cbr -e 1000 -c 2 -i 36 -a 2 -x {1.0 3.1 36 ------- null}
h -t 0.274 -s 2 -d 3 -p cbr -e 1000 -c 2 -i 36 -a 2 -x {1.0 3.1 -1 ------- null}
r -t 0.275333333333333 -s 2 -d 3 -p cbr -e 1000 -c 2 -i 31 -a 2 -x {1.0 3.1 31 ------- null}
- -t 0.277333333333333 -s 1 -d 2 -p cbr -e 1000 -c 2 -i 40 -a 2 -x {1.0 3.1 40 ------- null}
h -t 0.277333333333333 -s 1 -d 2 -p cbr -e 1000 -c 2 -i 40 -a 2 -x {1.0 3.1 -1 ------- null}
r -t 0.278 -s 1 -d 2 -p cbr -e 1000 -c 2 -i 37 -a 2 -x {1.0 3.1 37 ------- null}
+ -t 0.278 -s 2 -d 3 -p cbr -e 1000 -c 2 -i 37 -a 2 -x {1.0 3.1 37 ------- null}
- -t 0.278 -s 2 -d 3 -p cbr -e 1000 -c 2 -i 37 -a 2 -x {1.0 3.1 37 ------- null}
h -t 0.278 -s 2 -d 3 -p cbr -e 1000 -c 2 -i 37 -a 2 -x {1.0 3.1 -1 ------- null}
r -t 0.279333333333333 -s 2 -d 3 -p cbr -e 1000 -c 2 -i 32 -a 2 -x {1.0 3.1 32 ------- null}
- -t 0.281333333333333 -s 1 -d 2 -p cbr -e 1000 -c 2 -i 41 -a 2 -x {1.0 3.1 41 ------- null}
h -t 0.281333333333333 -s 1 -d 2 -p cbr -e 1000 -c 2 -i 41 -a 2 -x {1.0 3.1 -1 ------- null}
r -t 0.282 -s 1 -d 2 -p cbr -e 1000 -c 2 -i 38 -a 2 -x {1.0 3.1 38 ------- null}
+ -t 0.282 -s 2 -d 3 -p cbr -e 1000 -c 2 -i 38 -a 2 -x {1.0 3.1 38 ------- null}
- -t 0.282 -s 2 -d 3 -p cbr -e 1000 -c 2 -i 38 -a 2 -x {1.0 3.1 38 ------- null}
h -t 0.282 -s 2 -d 3 -p cbr -e 1000 -c 2 -i 38 -a 2 -x {1.0 3.1 -1 ------- null}
r -t 0.284666666666667 -s 2 -d 3 -p cbr -e 1000 -c 2 -i 33 -a 2 -x {1.0 3.1 33 ------- null}
+ -t 0.286666666666667 -s 1 -d 2 -p cbr -e 1000 -c 2 -i 42 -a 2 -x {1.0 3.1 42 ------- null}
- -t 0.286666666666667 -s 1 -d 2 -p cbr -e 1000 -c 2 -i 42 -a 2 -x {1.0 3.1 42 ------- null}
h -t 0.286666666666667 -s 1 -d 2 -p cbr -e 1000 -c 2 -i 42 -a 2 -x {1.0 3.1 -1 ------- null}
+ -t 0.286666666666667 -s 1 -d 2 -p cbr -e 1000 -c 2 -i 43 -a 2 -x {1.0 3.1 43 ------- null}
+ -t 0.286666666666667 -s 1 -d 2 -p cbr -e 1000 -c 2 -i 44 -a 2 -x {1.0 3.1 44 ------- null}
r -t 0.287333333333333 -s 1 -d 2 -p cbr -e 1000 -c 2 -i 39 -a 2 -x {1.0 3.1 39 ------- null}
+ -t 0.287333333333333 -s 2 -d 3 -p cbr -e 1000 -c 2 -i 39 -a 2 -x {1.0 3.1 39 ------- null}
- -t 0.287333333333333 -s 2 -d 3 -p cbr -e 1000 -c 2 -i 39 -a 2 -x {1.0 3.1 39 ------- null}
h -t 0.287333333333333 -s 2 -d 3 -p cbr -e 1000 -c 2 -i 39 -a 2 -x {1.0 3.1 -1 ------- null}
r -t 0.288666666666667 -s 2 -d 3 -p cbr -e 1000 -c 2 -i 34 -a 2 -x {1.0 3.1 34 ------- null}
- -t 0.290666666666667 -s 1 -d 2 -p cbr -e 1000 -c 2 -i 43 -a 2 -x {1.0 3.1 43 ------- null}
h -t 0.290666666666667 -s 1 -d 2 -p cbr -e 1000 -c 2 -i 43 -a 2 -x {1.0 3.1 -1 ------- null}
r -t 0.291333333333333 -s 1 -d 2 -p cbr -e 1000 -c 2 -i 40 -a 2 -x {1.0 3.1 40 ------- null}
+ -t 0.291333333333333 -s 2 -d 3 -p cbr -e 1000 -c 2 -i 40 -a 2 -x {1.0 3.1 40 ------- null}
- -t 0.291333333333333 -s 2 -d 3 -p cbr -e 1000 -c 2 -i 40 -a 2 -x {1.0 3.1 40 ------- null}
h -t 0.291333333333333 -s 2 -d 3 -p cbr -e 1000 -c 2 -i 40 -a 2 -x {1.0 3.1 -1 ------- null}
r -t 0.292666666666667 -s 2 -d 3 -p cbr -e 1000 -c 2 -i 35 -a 2 -x {1.0 3.1 35 ------- null}