+ 0.1 1 2 cbr 1000 ------- 2 1.0 3.1 0 0
- 0.1 1 2 cbr 1000 ------- 2 1.0 3.1 0 0
+ 0.1 1 2 cbr 1000 ------- 2 1.0 3.1 1 1
+ 0.1 1 2 cbr 1000 ------- 2 1.0 3.1 2 2
- 0.104 1 2 cbr 1000 ------- 2 1.0 3.1 1 1
- 0.108 1 2 cbr 1000 ------- 2 1.0 3.1 2 2
+ 0.113333 1 2 cbr 1000 ------- 2 1.0 3.1 3 3
- 0.113333 1 2 cbr 1000 ------- 2 1.0 3.1 3 3
+ 0.113333 1 2 cbr 1000 ------- 2 1.0 3.1 4 4
+ 0.113333 1 2 cbr 1000 ------- 2 1.0 3.1 5 5
r 0.114 1 2 cbr 1000 ------- 2 1.0 3.1 0 0
+ 0.114 2 3 cbr 1000 ------- 2 1.0 3.1 0 0
- 0.114 2 3 cbr 1000 ------- 2 1.0 3.1 0 0
- 0.117333 1 2 cbr 1000 ------- 2 1.0 3.1 4 4
r 0.118 1 2 cbr 1000 ------- 2 1.0 3.1 1 1
+ 0.118 2 3 cbr 1000 ------- 2 1.0 3.1 1 1
- 0.118 2 3 cbr 1000 ------- 2 1.0 3.1 1 1
- 0.121333 1 2 cbr 1000 ------- 2 1.0 3.1 5 5
r 0.122 1 2 cbr 1000 ------- 2 1.0 3.1 2 2
+ 0.122 2 3 cbr 1000 ------- 2 1.0 3.1 2 2
- 0.122 2 3 cbr 1000 ------- 2 1.0 3.1 2 2
+ 0.126667 1 2 cbr 1000 ------- 2 1.0 3.1 6 6
- 0.126667 1 2 cbr 1000 ------- 2 1.0 3.1 6 6
+ 0.126667 1 2 cbr 1000 ------- 2 1.0 3.1 7 7
+ 0.126667 1 2 cbr 1000 ------- 2 1.0 3.1 8 8
r 0.127333 1 2 cbr 1000 ------- 2 1.0 3.1 3 3
+ 0.127333 2 3 cbr 1000 ------- 2 1.0 3.1 3 3
- 0.127333 2 3 cbr 1000 ------- 2 1.0 3.1 3 3
- 0.130667 1 2 cbr 1000 ------- 2 1.0 3.1 7 7
r 0.131333 1 2 cbr 1000 ------- 2 1.0 3.1 4 4
+ 0.131333 2 3 cbr 1000 ------- 2 1.0 3.1 4 4
- 0.131333 2 3 cbr 1000 ------- 2 1.0 3.1 4 4
- 0.134667 1 2 cbr 1000 ------- 2 1.0 3.1 8 8
r 0.135333 1 2 cbr 1000 ------- 2 1.0 3.1 5 5
+ 0.135333 2 3 cbr 1000 ------- 2 1.0 3.1 5 5
- 0.135333 2 3 cbr 1000 ------- 2 1.0 3.1 5 5
r 0.138 2 3 cbr 1000 ------- 2 1.0 3.1 0 0
+ 0.14 1 2 cbr 1000 ------- 2 1.0 3.1 9 9
- 0.14 1 2 cbr 1000 ------- 2 1.0 3.1 9 9
+ 0.14 1 2 cbr 1000 ------- 2 1.0 3.1 10 10
+ 0.14 1 2 cbr 1000 ------- 2 1.0 3.1 11 11
r 0.140667 1 2 cbr 1000 ------- 2 1.0 3.1 6 6
+ 0.140667 2 3 cbr 1000 ------- 2 1.0 3.1 6 6
- 0.140667 2 3 cbr 1000 ------- 2 1.0 3.1 6 6
r 0.142 2 3 cbr 1000 ------- 2 1.0 3.1 1 1
- 0.144 1 2 cbr 1000 ------- 2 1.0 3.1 10 10
r 0.144667 1 2 cbr 1000 ------- 2 1.0 3.1 7 7
+ 0.144667 2 3 cbr 1000 ------- 2 1.0 3.1 7 7
- 0.144667 2 3 cbr 1000 ------- 2 1.0 3.1 7 7
r 0.146 2 3 cbr 1000 ------- 2 1.0 3.1 2 2
- 0.148 1 2 cbr 1000 ------- 2 1.0 3.1 11 11
r 0.148667 1 2 cbr 1000 ------- 2 1.0 3.1 8 8
+ 0.148667 2 3 cbr 1000 ------- 2 1.0 3.1 8 8
- 0.148667 2 3 cbr 1000 ------- 2 1.0 3.1 8 8
r 0.151333 2 3 cbr 1000 ------- 2 1.0 3.1 3 3
+ 0.153333 1 2 cbr 1000 ------- 2 1.0 3.1 12 12
- 0.153333 1 2 cbr 1000 ------- 2 1.0 3.1 12 12
+ 0.153333 1 2 cbr 1000 ------- 2 1.0 3.1 13 13
+ 0.153333 1 2 cbr 1000 ------- 2 1.0 3.1 14 14
r 0.154 1 2 cbr 1000 ------- 2 1.0 3.1 9 9
+ 0.154 2 3 cbr 1000 ------- 2 1.0 3.1 9 9
- 0.154 2 3 cbr 1000 ------- 2 1.0 3.1 9 9
r 0.155333 2 3 cbr 1000 ------- 2 1.0 3.1 4 4
- 0.157333 1 2 cbr 1000 ------- 2 1.0 3.1 13 13
r 0.158 1 2 cbr 1000 ------- 2 1.0 3.1 10 10
+ 0.158 2 3 cbr 1000 ------- 2 1.0 3.1 10 10
- 0.158 2 3 cbr 1000 ------- 2 1.0 3.1 10 10
r 0.159333 2 3 cbr 1000 ------- 2 1.0 3.1 5 5
- 0.161333 1 2 cbr 1000 ------- 2 1.0 3.1 14 14
r 0.162 1 2 cbr 1000 ------- 2 1.0 3.1 11 11
+ 0.162 2 3 cbr 1000 ------- 2 1.0 3.1 11 11
- 0.162 2 3 cbr 1000 ------- 2 1.0 3.1 11 11
r 0.164667 2 3 cbr 1000 ------- 2 1.0 3.1 6 6
+ 0.166667 1 2 cbr 1000 ------- 2 1.0 3.1 15 15
- 0.166667 1 2 cbr 1000 ------- 2 1.0 3.1 15 15
+ 0.166667 1 2 cbr 1000 ------- 2 1.0 3.1 16 16
+ 0.166667 1 2 cbr 1000 ------- 2 1.0 3.1 17 17
r 0.167333 1 2 cbr 1000 ------- 2 1.0 3.1 12 12
+ 0.167333 2 3 cbr 1000 ------- 2 1.0 3.1 12 12
- 0.167333 2 3 cbr 1000 ------- 2 1.0 3.1 12 12
r 0.168667 2 3 cbr 1000 ------- 2 1.0 3.1 7 7
- 0.170667 1 2 cbr 1000 ------- 2 1.0 3.1 16 16
r 0.171333 1 2 cbr 1000 ------- 2 1.0 3.1 13 13
+ 0.171333 2 3 cbr 1000 ------- 2 1.0 3.1 13 13
- 0.171333 2 3 cbr 1000 ------- 2 1.0 3.1 13 13
r 0.172667 2 3 cbr 1000 ------- 2 1.0 3.1 8 8
- 0.174667 1 2 cbr 1000 ------- 2 1.0 3.1 17 17
r 0.175333 1 2 cbr 1000 ------- 2 1.0 3.1 14 14
+ 0.175333 2 3 cbr 1000 ------- 2 1.0 3.1 14 14
- 0.175333 2 3 cbr 1000 ------- 2 1.0 3.1 14 14
r 0.178 2 3 cbr 1000 ------- 2 1.0 3.1 9 9
+ 0.18 1 2 cbr 1000 ------- 2 1.0 3.1 18 18
- 0.18 1 2 cbr 1000 ------- 2 1.0 3.1 18 18
+ 0.18 1 2 cbr 1000 ------- 2 1.0 3.1 19 19
+ 0.18 1 2 cbr 1000 ------- 2 1.0 3.1 20 20
r 0.180667 1 2 cbr 1000 ------- 2 1.0 3.1 15 15
+ 0.180667 2 3 cbr 1000 ------- 2 1.0 3.1 15 15
- 0.180667 2 3 cbr 1000 ------- 2 1.0 3.1 15 15
r 0.182 2 3 cbr 1000 ------- 2 1.0 3.1 10 10
- 0.184 1 2 cbr 1000 ------- 2 1.0 3.1 19 19
r 0.184667 1 2 cbr 1000 ------- 2 1.0 3.1 16 16
+ 0.184667 2 3 cbr 1000 ------- 2 1.0 3.1 16 16
- 0.184667 2 3 cbr 1000 ------- 2 1.0 3.1 16 16
r 0.186 2 3 cbr 1000 ------- 2 1.0 3.1 11 11
- 0.188 1 2 cbr 1000 ------- 2 1.0 3.1 20 20
r 0.188667 1 2 cbr 1000 ------- 2 1.0 3.1 17 17
+ 0.188667 2 3 cbr 1000 ------- 2 1.0 3.1 17 17
- 0.188667 2 3 cbr 1000 ------- 2 1.0 3.1 17 17
r 0.191333 2 3 cbr 1000 ------- 2 1.0 3.1 12 12
+ 0.193333 1 2 cbr 1000 ------- 2 1.0 3.1 21 21
- 0.193333 1 2 cbr 1000 ------- 2 1.0 3.1 21 21
+ 0.193333 1 2 cbr 1000 ------- 2 1.0 3.1 22 22
+ 0.193333 1 2 cbr 1000 ------- 2 1.0 3.1 23 23
r 0.194 1 2 cbr 1000 ------- 2 1.0 3.1 18 18
+ 0.194 2 3 cbr 1000 ------- 2 1.0 3.1 18 18
- 0.194 2 3 cbr 1000 ------- 2 1.0 3.1 18 18
r 0.195333 2 3 cbr 1000 ------- 2 1.0 3.1 13 13
- 0.197333 1 2 cbr 1000 ------- 2 1.0 3.1 22 22
r 0.198 1 2 cbr 1000 ------- 2 1.0 3.1 19 19
+ 0.198 2 3 cbr 1000 ------- 2 1.0 3.1 19 19
- 0.198 2 3 cbr 1000 ------- 2 1.0 3.1 19 19
r 0.199333 2 3 cbr 1000 ------- 2 1.0 3.1 14 14
- 0.201333 1 2 cbr 1000 ------- 2 1.0 3.1 23 23
r 0.202 1 2 cbr 1000 ------- 2 1.0 3.1 20 20
+ 0.202 2 3 cbr 1000 ------- 2 1.0 3.1 20 20
- 0.202 2 3 cbr 1000 ------- 2 1.0 3.1 20 20
r 0.204667 2 3 cbr 1000 ------- 2 1.0 3.1 15 15
+ 0.206667 1 2 cbr 1000 ------- 2 1.0 3.1 24 24
- 0.206667 1 2 cbr 1000 ------- 2 1.0 3.1 24 24
+ 0.206667 1 2 cbr 1000 ------- 2 1.0 3.1 25 25
+ 0.206667 1 2 cbr 1000 ------- 2 1.0 3.1 26 26
r 0.207333 1 2 cbr 1000 ------- 2 1.0 3.1 21 21
+ 0.207333 2 3 cbr 1000 ------- 2 1.0 3.1 21 21
- 0.207333 2 3 cbr 1000 ------- 2 1.0 3.1 21 21
r 0.208667 2 3 cbr 1000 ------- 2 1.0 3.1 16 16
- 0.210667 1 2 cbr 1000 ------- 2 1.0 3.1 25 25
r 0.211333 1 2 cbr 1000 ------- 2 1.0 3.1 22 22
+ 0.211333 2 3 cbr 1000 ------- 2 1.0 3.1 22 22
- 0.211333 2 3 cbr 1000 ------- 2 1.0 3.1 22 22
r 0.212667 2 3 cbr 1000 ------- 2 1.0 3.1 17 17
- 0.214667 1 2 cbr 1000 ------- 2 1.0 3.1 26 26
r 0.215333 1 2 cbr 1000 ------- 2 1.0 3.1 23 23
+ 0.215333 2 3 cbr 1000 ------- 2 1.0 3.1 23 23
- 0.215333 2 3 cbr 1000 ------- 2 1.0 3.1 23 23
r 0.218 2 3 cbr 1000 ------- 2 1.0 3.1 18 18
+ 0.22 1 2 cbr 1000 ------- 2 1.0 3.1 27 27
- 0.22 1 2 cbr 1000 ------- 2 1.0 3.1 27 27
+ 0.22 1 2 cbr 1000 ------- 2 1.0 3.1 28 28
+ 0.22 1 2 cbr 1000 ------- 2 1.0 3.1 29 29
r 0.220667 1 2 cbr 1000 ------- 2 1.0 3.1 24 24
+ 0.220667 2 3 cbr 1000 ------- 2 1.0 3.1 24 24
- 0.220667 2 3 cbr 1000 ------- 2 1.0 3.1 24 24
r 0.222 2 3 cbr 1000 ------- 2 1.0 3.1 19 19
- 0.224 1 2 cbr 1000 ------- 2 1.0 3.1 28 28
r 0.224667 1 2 cbr 1000 ------- 2 1.0 3.1 25 25
+ 0.224667 2 3 cbr 1000 ------- 2 1.0 3.1 25 25
- 0.224667 2 3 cbr 1000 ------- 2 1.0 3.1 25 25
r 0.226 2 3 cbr 1000 ------- 2 1.0 3.1 20 20
- 0.228 1 2 cbr 1000 ------- 2 1.0 3.1 29 29
r 0.228667 1 2 cbr 1000 ------- 2 1.0 3.1 26 26
+ 0.228667 2 3 cbr 1000 ------- 2 1.0 3.1 26 26
- 0.228667 2 3 cbr 1000 ------- 2 1.0 3.1 26 26
r 0.231333 2 3 cbr 1000 ------- 2 1.0 3.1 21 21
+ 0.233333 1 2 cbr 1000 ------- 2 1.0 3.1 30 30
- 0.233333 1 2 cbr 1000 ------- 2 1.0 3.1 30 30
+ 0.233333 1 2 cbr 1000 ------- 2 1.0 3.1 31 31
+ 0.233333 1 2 cbr 1000 ------- 2 1.0 3.1 32 32
r 0.234 1 2 cbr 1000 ------- 2 1.0 3.1 27 27
+ 0.234 2 3 cbr 1000 ------- 2 1.0 3.1 27 27
- 0.234 2 3 cbr 1000 ------- 2 1.0 3.1 27 27
r 0.235333 2 3 cbr 1000 ------- 2 1.0 3.1 22 22
- 0.237333 1 2 cbr 1000 ------- 2 1.0 3.1 31 31
r 0.238 1 2 cbr 1000 ------- 2 1.0 3.1 28 28
+ 0.238 2 3 cbr 1000 ------- 2 1.0 3.1 28 28
- 0.238 2 3 cbr 1000 ------- 2 1.0 3.1 28 28
r 0.239333 2 3 cbr 1000 ------- 2 1.0 3.1 23 23
- 0.241333 1 2 cbr 1000 ------- 2 1.0 3.1 32 32
r 0.242 1 2 cbr 1000 ------- 2 1.0 3.1 29 29
+ 0.242 2 3 cbr 1000 ------- 2 1.0 3.1 29 29
- 0.242 2 3 cbr 1000 ------- 2 1.0 3.1 29 29
r 0.244667 2 3 cbr 1000 ------- 2 1.0 3.1 24 24
+ 0.246667 1 2 cbr 1000 ------- 2 1.0 3.1 33 33
- 0.246667 1 2 cbr 1000 ------- 2 1.0 3.1 33 33
+ 0.246667 1 2 cbr 1000 ------- 2 1.0 3.1 34 34
+ 0.246667 1 2 cbr 1000 ------- 2 1.0 3.1 35 35
r 0.247333 1 2 cbr 1000 ------- 2 1.0 3.1 30 30
+ 0.247333 2 3 cbr 1000 ------- 2 1.0 3.1 30 30
- 0.247333 2 3 cbr 1000 ------- 2 1.0 3.1 30 30
r 0.248667 2 3 cbr 1000 ------- 2 1.0 3.1 25 25
- 0.250667 1 2 cbr 1000 ------- 2 1.0 3.1 34 34
r 0.251333 1 2 cbr 1000 ------- 2 1.0 3.1 31 31
+ 0.251333 2 3 cbr 1000 ------- 2 1.0 3.1 31 31
- 0.251333 2 3 cbr 1000 ------- 2 1.0 3.1 31 31
r 0.252667 2 3 cbr 1000 ------- 2 1.0 3.1 26 26
- 0.254667 1 2 cbr 1000 ------- 2 1.0 3.1 35 35
r 0.255333 1 2 cbr 1000 ------- 2 1.0 3.1 32 32
+ 0.255333 2 3 cbr 1000 ------- 2 1.0 3.1 32 32
- 0.255333 2 3 cbr 1000 ------- 2 1.0 3.1 32 32
r 0.258 2 3 cbr 1000 ------- 2 1.0 3.1 27 27
+ 0.26 1 2 cbr 1000 ------- 2 1.0 3.1 36 36
- 0.26 1 2 cbr 1000 ------- 2 1.0 3.1 36 36
+ 0.26 1 2 cbr 1000 ------- 2 1.0 3.1 37 37
+ 0.26 1 2 cbr 1000 ------- 2 1.0 3.1 38 38
r 0.260667 1 2 cbr 1000 ------- 2 1.0 3.1 33 33
+ 0.260667 2 3 cbr 1000 ------- 2 1.0 3.1 33 33
- 0.260667 2 3 cbr 1000 ------- 2 1.0 3.1 33 33
r 0.262 2 3 cbr 1000 ------- 2 1.0 3.1 28 28
- 0.264 1 2 cbr 1000 ------- 2 1.0 3.1 37 37
r 0.264667 1 2 cbr 1000 ------- 2 1.0 3.1 34 34
+ 0.264667 2 3 cbr 1000 ------- 2 1.0 3.1 34 34
- 0.264667 2 3 cbr 1000 ------- 2 1.0 3.1 34 34
r 0.266 2 3 cbr 1000 ------- 2 1.0 3.1 29 29
- 0.268 1 2 cbr 1000 ------- 2 1.0 3.1 38 38
r 0.268667 1 2 cbr 1000 ------- 2 1.0 3.1 35 35
+ 0.268667 2 3 cbr 1000 ------- 2 1.0 3.1 35 35
- 0.268667 2 3 cbr 1000 ------- 2 1.0 3.1 35 35
r 0.271333 2 3 cbr 1000 ------- 2 1.0 3.1 30 30
+ 0.273333 1 2 cbr 1000 ------- 2 1.0 3.1 39 39
- 0.273333 1 2 cbr 1000 ------- 2 1.0 3.1 39 39
+ 0.273333 1 2 cbr 1000 ------- 2 1.0 3.1 40 40
+ 0.273333 1 2 cbr 1000 ------- 2 1.0 3.1 41 41
r 0.274 1 2 cbr 1000 ------- 2 1.0 3.1 36 36
+ 0.274 2 3 cbr 1000 ------- 2 1.0 3.1 36 36
- 0.274 2 3 cbr 1000 ------- 2 1.0 3.1 36 36
r 0.275333 2 3 cbr 1000 ------- 2 1.0 3.1 31 31
- 0.277333 1 2 cbr 1000 ------- 2 1.0 3.1 40 40
r 0.278 1 2 cbr 1000 ------- 2 1.0 3.1 37 37
+ 0.278 2 3 cbr 1000 ------- 2 1.0 3.1 37 37
- 0.278 2 3 cbr 1000 ------- 2 1.0 3.1 37 37
r 0.279333 2 3 cbr 1000 ------- 2 1.0 3.1 32 32
- 0.281333 1 2 cbr 1000 ------- 2 1.0 3.1 41 41
r 0.282 1 2 cbr 1000 ------- 2 1.0 3.1 38 38
+ 0.282 2 3 cbr 1000 ------- 2 1.0 3.1 38 38
- 0.282 2 3 cbr 1000 ------- 2 1.0 3.1 38 38
r 0.284667 2 3 cbr 1000 ------- 2 1.0 3.1 33 33
+ 0.286667 1 2 cbr 1000 ------- 2 1.0 3.1 42 42
- 0.286667 1 2 cbr 1000 ------- 2 1.0 3.1 42 42
+ 0.286667 1 2 cbr 1000 ------- 2 1.0 3.1 43 43
+ 0.286667 1 2 cbr 1000 ------- 2 1.0 3.1 44 44
r 0.287333 1 2 cbr 1000 ------- 2 1.0 3.1 39 39
+ 0.287333 2 3 cbr 1000 ------- 2 1.0 3.1 39 39
- 0.287333 2 3 cbr 1000 ------- 2 1.0 3.1 39 39
r 0.288667 2 3 cbr 1000 ------- 2 1.0 3.1 34 34
- 0.290667 1 2 cbr 1000 ------- 2 1.0 3.1 43 43
r 0.291333 1 2 cbr 1000 ------- 2 1.0 3.1 40 40
+ 0.291333 2 3 cbr 1000 ------- 2 1.0 3.1 40 40
- 0.291333 2 3 cbr 1000 ------- 2 1.0 3.1 40 40
r 0.292667 2 3 cbr 1000 ------- 2 1.0 3.1 35 35
- 0.294667 1 2 cbr 1000 ------- 2 1.0 3.1 44 44
r 0.295333 1 2 cbr 1000 ------- 2 1.0 3.1 41 41
+ 0.295333 2 3 cbr 1000 ------- 2 1.0 3.1 41 41
- 0.295333 2 3 cbr 1000 ------- 2 1.0 3.1 41 41
r 0.298 2 3 cbr 1000 ------- 2 1.0 3.1 36 36
+ 0.3 1 2 cbr 1000 ------- 2 1.0 3.1 45 45
- 0.3 1 2 cbr 1000 ------- 2 1.0 3.1 45 45
+ 0.3 1 2 cbr 1000 ------- 2 1.0 3.1 46 46
+ 0.3 1 2 cbr 1000 ------- 2 1.0 3.1 47 47
r 0.300667 1 2 cbr 1000 ------- 2 1.0 3.1 42 42
+ 0.300667 2 3 cbr 1000 ------- 2 1.0 3.1 42 42
- 0.300667 2 3 cbr 1000 ------- 2 1.0 3.1 42 42
r 0.302 2 3 cbr 1000 ------- 2 1.0 3.1 37 37
- 0.304 1 2 cbr 1000 ------- 2 1.0 3.1 46 46
r 0.304667 1 2 cbr 1000 ------- 2 1.0 3.1 43 43
+ 0.304667 2 3 cbr 1000 ------- 2 1.0 3.1 43 43
- 0.304667 2 3 cbr 1000 ------- 2 1.0 3.1 43 43
r 0.306 2 3 cbr 1000 ------- 2 1.0 3.1 38 38
- 0.308 1 2 cbr 1000 ------- 2 1.0 3.1 47 47
r 0.308667 1 2 cbr 1000 ------- 2 1.0 3.1 44 44
+ 0.308667 2 3 cbr 1000 ------- 2 1.0 3.1 44 44
- 0.308667 2 3 cbr 1000 ------- 2 1.0 3.1 44 44
r 0.311333 2 3 cbr 1000 ------- 2 1.0 3.1 39 39
+ 0.313333 1 2 cbr 1000 ------- 2 1.0 3.1 48 48
- 0.313333 1 2 cbr 1000 ------- 2 1.0 3.1 48 48
+ 0.313333 1 2 cbr 1000 ------- 2 1.0 3.1 49 49
+ 0.313333 1 2 cbr 1000 ------- 2 1.0 3.1 50 50
r 0.314 1 2 cbr 1000 ------- 2 1.0 3.1 45 45
+ 0.314 2 3 cbr 1000 ------- 2 1.0 3.1 45 45
- 0.314 2 3 cbr 1000 ------- 2 1.0 3.1 45 45
r 0.315333 2 3 cbr 1000 ------- 2 1.0 3.1 40 40
- 0.317333 1 2 cbr 1000 ------- 2 1.0 3.1 49 49
r 0.318 1 2 cbr 1000 ------- 2 1.0 3.1 46 46
+ 0.318 2 3 cbr 1000 ------- 2 1.0 3.1 46 46
- 0.318 2 3 cbr 1000 ------- 2 1.0 3.1 46 46
r 0.319333 2 3 cbr 1000 ------- 2 1.0 3.1 41 41
- 0.321333 1 2 cbr 1000 ------- 2 1.0 3.1 50 50
r 0.322 1 2 cbr 1000 ------- 2 1.0 3.1 47 47
+ 0.322 2 3 cbr 1000 ------- 2 1.0 3.1 47 47
- 0.322 2 3 cbr 1000 ------- 2 1.0 3.1 47 47
r 0.324667 2 3 cbr 1000 ------- 2 1.0 3.1 42 42
+ 0.326667 1 2 cbr 1000 ------- 2 1.0 3.1 51 51
- 0.326667 1 2 cbr 1000 ------- 2 1.0 3.1 51 51
+ 0.326667 1 2 cbr 1000 ------- 2 1.0 3.1 52 52
+ 0.326667 1 2 cbr 1000 ------- 2 1.0 3.1 53 53
r 0.327333 1 2 cbr 1000 ------- 2 1.0 3.1 48 48
+ 0.327333 2 3 cbr 1000 ------- 2 1.0 3.1 48 48
- 0.327333 2 3 cbr 1000 ------- 2 1.0 3.1 48 48
r 0.328667 2 3 cbr 1000 ------- 2 1.0 3.1 43 43
- 0.330667 1 2 cbr 1000 ------- 2 1.0 3.1 52 52
r 0.331333 1 2 cbr 1000 ------- 2 1.0 3.1 49 49
+ 0.331333 2 3 cbr 1000 ------- 2 1.0 3.1 49 49
- 0.331333 2 3 cbr 1000 ------- 2 1.0 3.1 49 49
r 0.332667 2 3 cbr 1000 ------- 2 1.0 3.1 44 44
- 0.334667 1 2 cbr 1000 ------- 2 1.0 3.1 53 53
r 0.335333 1 2 cbr 1000 ------- 2 1.0 3.1 50 50
+ 0.335333 2 3 cbr 1000 ------- 2 1.0 3.1 50 50
- 0.335333 2 3 cbr 1000 ------- 2 1.0 3.1 50 50
r 0.338 2 3 cbr 1000 ------- 2 1.0 3.1 45 45
+ 0.34 1 2 cbr 1000 ------- 2 1.0 3.1 54 54
- 0.34 1 2 cbr 1000 ------- 2 1.0 3.1 54 54
+ 0.34 1 2 cbr 1000 ------- 2 1.0 3.1 55 55
+ 0.34 1 2 cbr 1000 ------- 2 1.0 3.1 56 56
r 0.340667 1 2 cbr 1000 ------- 2 1.0 3.1 51 51
+ 0.340667 2 3 cbr 1000 ------- 2 1.0 3.1 51 51
- 0.340667 2 3 cbr 1000 ------- 2 1.0 3.1 51 51
r 0.342 2 3 cbr 1000 ------- 2 1.0 3.1 46 46
- 0.344 1 2 cbr 1000 ------- 2 1.0 3.1 55 55
r 0.344667 1 2 cbr 1000 ------- 2 1.0 3.1 52 52
+ 0.344667 2 3 cbr 1000 ------- 2 1.0 3.1 52 52
- 0.344667 2 3 cbr 1000 ------- 2 1.0 3.1 52 52
r 0.346 2 3 cbr 1000 ------- 2 1.0 3.1 47 47
- 0.348 1 2 cbr 1000 ------- 2 1.0 3.1 56 56
r 0.348667 1 2 cbr 1000 ------- 2 1.0 3.1 53 53
+ 0.348667 2 3 cbr 1000 ------- 2 1.0 3.1 53 53
- 0.348667 2 3 cbr 1000 ------- 2 1.0 3.1 53 53
r 0.351333 2 3 cbr 1000 ------- 2 1.0 3.1 48 48
+ 0.353333 1 2 cbr 1000 ------- 2 1.0 3.1 57 57
- 0.353333 1 2 cbr 1000 ------- 2 1.0 3.1 57 57
+ 0.353333 1 2 cbr 1000 ------- 2 1.0 3.1 58 58
+ 0.353333 1 2 cbr 1000 ------- 2 1.0 3.1 59 59
r 0.354 1 2 cbr 1000 ------- 2 1.0 3.1 54 54
+ 0.354 2 3 cbr 1000 ------- 2 1.0 3.1 54 54
- 0.354 2 3 cbr 1000 ------- 2 1.0 3.1 54 54
r 0.355333 2 3 cbr 1000 ------- 2 1.0 3.1 49 49
- 0.357333 1 2 cbr 1000 ------- 2 1.0 3.1 58 58
r 0.358 1 2 cbr 1000 ------- 2 1.0 3.1 55 55
+ 0.358 2 3 cbr 1000 ------- 2 1.0 3.1 55 55
- 0.358 2 3 cbr 1000 ------- 2 1.0 3.1 55 55
r 0.359333 2 3 cbr 1000 ------- 2 1.0 3.1 50 50
- 0.361333 1 2 cbr 1000 ------- 2 1.0 3.1 59 59
r 0.362 1 2 cbr 1000 ------- 2 1.0 3.1 56 56
+ 0.362 2 3 cbr 1000 ------- 2 1.0 3.1 56 56
- 0.362 2 3 cbr 1000 ------- 2 1.0 3.1 56 56
r 0.364667 2 3 cbr 1000 ------- 2 1.0 3.1 51 51
+ 0.366667 1 2 cbr 1000 ------- 2 1.0 3.1 60 60
- 0.366667 1 2 cbr 1000 ------- 2 1.0 3.1 60 60
+ 0.366667 1 2 cbr 1000 ------- 2 1.0 3.1 61 61
+ 0.366667 1 2 cbr 1000 ------- 2 1.0 3.1 62 62
r 0.367333 1 2 cbr 1000 ------- 2 1.0 3.1 57 57
+ 0.367333 2 3 cbr 1000 ------- 2 1.0 3.1 57 57
- 0.367333 2 3 cbr 1000 ------- 2 1.0 3.1 57 57
r 0.368667 2 3 cbr 1000 ------- 2 1.0 3.1 52 52
- 0.370667 1 2 cbr 1000 ------- 2 1.0 3.1 61 61
r 0.371333 1 2 cbr 1000 ------- 2 1.0 3.1 58 58
+ 0.371333 2 3 cbr 1000 ------- 2 1.0 3.1 58 58
- 0.371333 2 3 cbr 1000 ------- 2 1.0 3.1 58 58
r 0.372667 2 3 cbr 1000 ------- 2 1.0 3.1 53 53
- 0.374667 1 2 cbr 1000 ------- 2 1.0 3.1 62 62
r 0.375333 1 2 cbr 1000 ------- 2 1.0 3.1 59 59
+ 0.375333 2 3 cbr 1000 ------- 2 1.0 3.1 59 59
- 0.375333 2 3 cbr 1000 ------- 2 1.0 3.1 59 59
r 0.378 2 3 cbr 1000 ------- 2 1.0 3.1 54 54
+ 0.38 1 2 cbr 1000 ------- 2 1.0 3.1 63 63
- 0.38 1 2 cbr 1000 ------- 2 1.0 3.1 63 63
+ 0.38 1 2 cbr 1000 ------- 2 1.0 3.1 64 64
+ 0.38 1 2 cbr 1000 ------- 2 1.0 3.1 65 65
r 0.380667 1 2 cbr 1000 ------- 2 1.0 3.1 60 60
+ 0.380667 2 3 cbr 1000 ------- 2 1.0 3.1 60 60
- 0.380667 2 3 cbr 1000 ------- 2 1.0 3.1 60 60
r 0.382 2 3 cbr 1000 ------- 2 1.0 3.1 55 55
- 0.384 1 2 cbr 1000 ------- 2 1.0 3.1 64 64
r 0.384667 1 2 cbr 1000 ------- 2 1.0 3.1 61 61
+ 0.384667 2 3 cbr 1000 ------- 2 1.0 3.1 61 61
- 0.384667 2 3 cbr 1000 ------- 2 1.0 3.1 61 61
r 0.386 2 3 cbr 1000 ------- 2 1.0 3.1 56 56
- 0.388 1 2 cbr 1000 ------- 2 1.0 3.1 65 65
r 0.388667 1 2 cbr 1000 ------- 2 1.0 3.1 62 62
+ 0.388667 2 3 cbr 1000 ------- 2 1.0 3.1 62 62
- 0.388667 2 3 cbr 1000 ------- 2 1.0 3.1 62 62
r 0.391333 2 3 cbr 1000 ------- 2 1.0 3.1 57 57
+ 0.393333 1 2 cbr 1000 ------- 2 1.0 3.1 66 66
- 0.393333 1 2 cbr 1000 ------- 2 1.0 3.1 66 66
+ 0.393333 1 2 cbr 1000 ------- 2 1.0 3.1 67 67
+ 0.393333 1 2 cbr 1000 ------- 2 1.0 3.1 68 68
r 0.394 1 2 cbr 1000 ------- 2 1.0 3.1 63 63
+ 0.394 2 3 cbr 1000 ------- 2 1.0 3.1 63 63
- 0.394 2 3 cbr 1000 ------- 2 1.0 3.1 63 63
r 0.395333 2 3 cbr 1000 ------- 2 1.0 3.1 58 58
- 0.397333 1 2 cbr 1000 ------- 2 1.0 3.1 67 67
r 0.398 1 2 cbr 1000 ------- 2 1.0 3.1 64 64
+ 0.398 2 3 cbr 1000 ------- 2 1.0 3.1 64 64
- 0.398 2 3 cbr 1000 ------- 2 1.0 3.1 64 64
r 0.399333 2 3 cbr 1000 ------- 2 1.0 3.1 59 59
- 0.401333 1 2 cbr 1000 ------- 2 1.0 3.1 68 68
r 0.402 1 2 cbr 1000 ------- 2 1.0 3.1 65 65
+ 0.402 2 3 cbr 1000 ------- 2 1.0 3.1 65 65
- 0.402 2 3 cbr 1000 ------- 2 1.0 3.1 65 65
r 0.404667 2 3 cbr 1000 ------- 2 1.0 3.1 60 60
+ 0.406667 1 2 cbr 1000 ------- 2 1.0 3.1 69 69
- 0.406667 1 2 cbr 1000 ------- 2 1.0 3.1 69 69
+ 0.406667 1 2 cbr 1000 ------- 2 1.0 3.1 70 70
+ 0.406667 1 2 cbr 1000 ------- 2 1.0 3.1 71 71
r 0.407333 1 2 cbr 1000 ------- 2 1.0 3.1 66 66
+ 0.407333 2 3 cbr 1000 ------- 2 1.0 3.1 66 66
- 0.407333 2 3 cbr 1000 ------- 2 1.0 3.1 66 66
r 0.408667 2 3 cbr 1000 ------- 2 1.0 3.1 61 61
- 0.410667 1 2 cbr 1000 ------- 2 1.0 3.1 70 70
r 0.411333 1 2 cbr 1000 ------- 2 1.0 3.1 67 67
+ 0.411333 2 3 cbr 1000 ------- 2 1.0 3.1 67 67
- 0.411333 2 3 cbr 1000 ------- 2 1.0 3.1 67 67
r 0.412667 2 3 cbr 1000 ------- 2 1.0 3.1 62 62
- 0.414667 1 2 cbr 1000 ------- 2 1.0 3.1 71 71
r 0.415333 1 2 cbr 1000 ------- 2 1.0 3.1 68 68
+ 0.415333 2 3 cbr 1000 ------- 2 1.0 3.1 68 68
- 0.415333 2 3 cbr 1000 ------- 2 1.0 3.1 68 68
r 0.418 2 3 cbr 1000 ------- 2 1.0 3.1 63 63
+ 0.42 1 2 cbr 1000 ------- 2 1.0 3.1 72 72
- 0.42 1 2 cbr 1000 ------- 2 1.0 3.1 72 72
+ 0.42 1 2 cbr 1000 ------- 2 1.0 3.1 73 73
+ 0.42 1 2 cbr 1000 ------- 2 1.0 3.1 74 74
r 0.420667 1 2 cbr 1000 ------- 2 1.0 3.1 69 69
+ 0.420667 2 3 cbr 1000 ------- 2 1.0 3.1 69 69
- 0.420667 2 3 cbr 1000 ------- 2 1.0 3.1 69 69
r 0.422 2 3 cbr 1000 ------- 2 1.0 3.1 64 64
- 0.424 1 2 cbr 1000 ------- 2 1.0 3.1 73 73
r 0.424667 1 2 cbr 1000 ------- 2 1.0 3.1 70 70
+ 0.424667 2 3 cbr 1000 ------- 2 1.0 3.1 70 70
- 0.424667 2 3 cbr 1000 ------- 2 1.0 3.1 70 70
r 0.426 2 3 cbr 1000 ------- 2 1.0 3.1 65 65
- 0.428 1 2 cbr 1000 ------- 2 1.0 3.1 74 74
r 0.428667 1 2 cbr 1000 ------- 2 1.0 3.1 71 71
+ 0.428667 2 3 cbr 1000 ------- 2 1.0 3.1 71 71
- 0.428667 2 3 cbr 1000 ------- 2 1.0 3.1 71 71
r 0.431333 2 3 cbr 1000 ------- 2 1.0 3.1 66 66
+ 0.433333 1 2 cbr 1000 ------- 2 1.0 3.1 75 75
- 0.433333 1 2 cbr 1000 ------- 2 1.0 3.1 75 75
+ 0.433333 1 2 cbr 1000 ------- 2 1.0 3.1 76 76
+ 0.433333 1 2 cbr 1000 ------- 2 1.0 3.1 77 77
r 0.434 1 2 cbr 1000 ------- 2 1.0 3.1 72 72
+ 0.434 2 3 cbr 1000 ------- 2 1.0 3.1 72 72
- 0.434 2 3 cbr 1000 ------- 2 1.0 3.1 72 72
r 0.435333 2 3 cbr 1000 ------- 2 1.0 3.1 67 67
- 0.437333 1 2 cbr 1000 ------- 2 1.0 3.1 76 76
r 0.438 1 2 cbr 1000 ------- 2 1.0 3.1 73 73
+ 0.438 2 3 cbr 1000 ------- 2 1.0 3.1 73 73
- 0.438 2 3 cbr 1000 ------- 2 1.0 3.1 73 73
r 0.439333 2 3 cbr 1000 ------- 2 1.0 3.1 68 68
- 0.441333 1 2 cbr 1000 ------- 2 1.0 3.1 77 77
r 0.442 1 2 cbr 1000 ------- 2 1.0 3.1 74 74
+ 0.442 2 3 cbr 1000 ------- 2 1.0 3.1 74 74
- 0.442 2 3 cbr 1000 ------- 2 1.0 3.1 74 74
r 0.444667 2 3 cbr 1000 ------- 2 1.0 3.1 69 69
+ 0.446667 1 2 cbr 1000 ------- 2 1.0 3.1 78 78
- 0.446667 1 2 cbr 1000 ------- 2 1.0 3.1 78 78
+ 0.446667 1 2 cbr 1000 ------- 2 1.0 3.1 79 79
+ 0.446667 1 2 cbr 1000 ------- 2 1.0 3.1 80 80
r 0.447333 1 2 cbr 1000 ------- 2 1.0 3.1 75 75
+ 0.447333 2 3 cbr 1000 ------- 2 1.0 3.1 75 75
- 0.447333 2 3 cbr 1000 ------- 2 1.0 3.1 75 75
r 0.448667 2 3 cbr 1000 ------- 2 1.0 3.1 70 70
- 0.450667 1 2 cbr 1000 ------- 2 1.0 3.1 79 79
r 0.451333 1 2 cbr 1000 ------- 2 1.0 3.1 76 76
+ 0.451333 2 3 cbr 1000 ------- 2 1.0 3.1 76 76
- 0.451333 2 3 cbr 1000 ------- 2 1.0 3.1 76 76
r 0.452667 2 3 cbr 1000 ------- 2 1.0 3.1 71 71
- 0.454667 1 2 cbr 1000 ------- 2 1.0 3.1 80 80
r 0.455333 1 2 cbr 1000 ------- 2 1.0 3.1 77 77
+ 0.455333 2 3 cbr 1000 ------- 2 1.0 3.1 77 77
- 0.455333 2 3 cbr 1000 ------- 2 1.0 3.1 77 77
r 0.458 2 3 cbr 1000 ------- 2 1.0 3.1 72 72
+ 0.46 1 2 cbr 1000 ------- 2 1.0 3.1 81 81
- 0.46 1 2 cbr 1000 ------- 2 1.0 3.1 81 81
+ 0.46 1 2 cbr 1000 ------- 2 1.0 3.1 82 82
+ 0.46 1 2 cbr 1000 ------- 2 1.0 3.1 83 83
r 0.460667 1 2 cbr 1000 ------- 2 1.0 3.1 78 78
+ 0.460667 2 3 cbr 1000 ------- 2 1.0 3.1 78 78
- 0.460667 2 3 cbr 1000 ------- 2 1.0 3.1 78 78
r 0.462 2 3 cbr 1000 ------- 2 1.0 3.1 73 73
- 0.464 1 2 cbr 1000 ------- 2 1.0 3.1 82 82
r 0.464667 1 2 cbr 1000 ------- 2 1.0 3.1 79 79
+ 0.464667 2 3 cbr 1000 ------- 2 1.0 3.1 79 79
- 0.464667 2 3 cbr 1000 ------- 2 1.0 3.1 79 79
r 0.466 2 3 cbr 1000 ------- 2 1.0 3.1 74 74
- 0.468 1 2 cbr 1000 ------- 2 1.0 3.1 83 83
r 0.468667 1 2 cbr 1000 ------- 2 1.0 3.1 80 80
+ 0.468667 2 3 cbr 1000 ------- 2 1.0 3.1 80 80
- 0.468667 2 3 cbr 1000 ------- 2 1.0 3.1 80 80
r 0.471333 2 3 cbr 1000 ------- 2 1.0 3.1 75 75
+ 0.473333 1 2 cbr 1000 ------- 2 1.0 3.1 84 84
- 0.473333 1 2 cbr 1000 ------- 2 1.0 3.1 84 84
+ 0.473333 1 2 cbr 1000 ------- 2 1.0 3.1 85 85
+ 0.473333 1 2 cbr 1000 ------- 2 1.0 3.1 86 86
r 0.474 1 2 cbr 1000 ------- 2 1.0 3.1 81 81
+ 0.474 2 3 cbr 1000 ------- 2 1.0 3.1 81 81
- 0.474 2 3 cbr 1000 ------- 2 1.0 3.1 81 81
r 0.475333 2 3 cbr 1000 ------- 2 1.0 3.1 76 76
- 0.477333 1 2 cbr 1000 ------- 2 1.0 3.1 85 85
r 0.478 1 2 cbr 1000 ------- 2 1.0 3.1 82 82
+ 0.478 2 3 cbr 1000 ------- 2 1.0 3.1 82 82
- 0.478 2 3 cbr 1000 ------- 2 1.0 3.1 82 82
r 0.479333 2 3 cbr 1000 ------- 2 1.0 3.1 77 77
- 0.481333 1 2 cbr 1000 ------- 2 1.0 3.1 86 86
r 0.482 1 2 cbr 1000 ------- 2 1.0 3.1 83 83
+ 0.482 2 3 cbr 1000 ------- 2 1.0 3.1 83 83
- 0.482 2 3 cbr 1000 ------- 2 1.0 3.1 83 83
r 0.484667 2 3 cbr 1000 ------- 2 1.0 3.1 78 78
+ 0.486667 1 2 cbr 1000 ------- 2 1.0 3.1 87 87
- 0.486667 1 2 cbr 1000 ------- 2 1.0 3.1 87 87
+ 0.486667 1 2 cbr 1000 ------- 2 1.0 3.1 88 88
+ 0.486667 1 2 cbr 1000 ------- 2 1.0 3.1 89 89
r 0.487333 1 2 cbr 1000 ------- 2 1.0 3.1 84 84
+ 0.487333 2 3 cbr 1000 ------- 2 1.0 3.1 84 84
- 0.487333 2 3 cbr 1000 ------- 2 1.0 3.1 84 84
r 0.488667 2 3 cbr 1000 ------- 2 1.0 3.1 79 79
- 0.490667 1 2 cbr 1000 ------- 2 1.0 3.1 88 88
r 0.491333 1 2 cbr 1000 ------- 2 1.0 3.1 85 85
+ 0.491333 2 3 cbr 1000 ------- 2 1.0 3.1 85 85
- 0.491333 2 3 cbr 1000 ------- 2 1.0 3.1 85 85
r 0.492667 2 3 cbr 1000 ------- 2 1.0 3.1 80 80
- 0.494667 1 2 cbr 1000 ------- 2 1.0 3.1 89 89
r 0.495333 1 2 cbr 1000 ------- 2 1.0 3.1 86 86
+ 0.495333 2 3 cbr 1000 ------- 2 1.0 3.1 86 86
- 0.495333 2 3 cbr 1000 ------- 2 1.0 3.1 86 86
r 0.498 2 3 cbr 1000 ------- 2 1.0 3.1 81 81
+ 0.5 1 2 cbr 1000 ------- 2 1.0 3.1 90 90
- 0.5 1 2 cbr 1000 ------- 2 1.0 3.1 90 90
+ 0.5 1 2 cbr 1000 ------- 2 1.0 3.1 91 91
+ 0.5 1 2 cbr 1000 ------- 2 1.0 3.1 92 92
r 0.500667 1 2 cbr 1000 ------- 2 1.0 3.1 87 87
+ 0.500667 2 3 cbr 1000 ------- 2 1.0 3.1 87 87
- 0.500667 2 3 cbr 1000 ------- 2 1.0 3.1 87 87
r 0.502 2 3 cbr 1000 ------- 2 1.0 3.1 82 82
- 0.504 1 2 cbr 1000 ------- 2 1.0 3.1 91 91
r 0.504667 1 2 cbr 1000 ------- 2 1.0 3.1 88 88
+ 0.504667 2 3 cbr 1000 ------- 2 1.0 3.1 88 88
- 0.504667 2 3 cbr 1000 ------- 2 1.0 3.1 88 88
r 0.506 2 3 cbr 1000 ------- 2 1.0 3.1 83 83
- 0.508 1 2 cbr 1000 ------- 2 1.0 3.1 92 92
r 0.508667 1 2 cbr 1000 ------- 2 1.0 3.1 89 89
+ 0.508667 2 3 cbr 1000 ------- 2 1.0 3.1 89 89
- 0.508667 2 3 cbr 1000 ------- 2 1.0 3.1 89 89
r 0.511333 2 3 cbr 1000 ------- 2 1.0 3.1 84 84
+ 0.513333 1 2 cbr 1000 ------- 2 1.0 3.1 93 93
- 0.513333 1 2 cbr 1000 ------- 2 1.0 3.1 93 93
+ 0.513333 1 2 cbr 1000 ------- 2 1.0 3.1 94 94
+ 0.513333 1 2 cbr 1000 ------- 2 1.0 3.1 95 95
r 0.514 1 2 cbr 1000 ------- 2 1.0 3.1 90 90
+ 0.514 2 3 cbr 1000 ------- 2 1.0 3.1 90 90
- 0.514 2 3 cbr 1000 ------- 2 1.0 3.1 90 90
r 0.515333 2 3 cbr 1000 ------- 2 1.0 3.1 85 85
- 0.517333 1 2 cbr 1000 ------- 2 1.0 3.1 94 94
r 0.518 1 2 cbr 1000 ------- 2 1.0 3.1 91 91
+ 0.518 2 3 cbr 1000 ------- 2 1.0 3.1 91 91
- 0.518 2 3 cbr 1000 ------- 2 1.0 3.1 91 91
r 0.519333 2 3 cbr 1000 ------- 2 1.0 3.1 86 86
- 0.521333 1 2 cbr 1000 ------- 2 1.0 3.1 95 95
r 0.522 1 2 cbr 1000 ------- 2 1.0 3.1 92 92
+ 0.522 2 3 cbr 1000 ------- 2 1.0 3.1 92 92
- 0.522 2 3 cbr 1000 ------- 2 1.0 3.1 92 92
r 0.524667 2 3 cbr 1000 ------- 2 1.0 3.1 87 87
+ 0.526667 1 2 cbr 1000 ------- 2 1.0 3.1 96 96
- 0.526667 1 2 cbr 1000 ------- 2 1.0 3.1 96 96
+ 0.526667 1 2 cbr 1000 ------- 2 1.0 3.1 97 97
+ 0.526667 1 2 cbr 1000 ------- 2 1.0 3.1 98 98
r 0.527333 1 2 cbr 1000 ------- 2 1.0 3.1 93 93
+ 0.527333 2 3 cbr 1000 ------- 2 1.0 3.1 93 93
- 0.527333 2 3 cbr 1000 ------- 2 1.0 3.1 93 93
r 0.528667 2 3 cbr 1000 ------- 2 1.0 3.1 88 88
- 0.530667 1 2 cbr 1000 ------- 2 1.0 3.1 97 97
r 0.531333 1 2 cbr 1000 ------- 2 1.0 3.1 94 94
+ 0.531333 2 3 cbr 1000 ------- 2 1.0 3.1 94 94
- 0.531333 2 3 cbr 1000 ------- 2 1.0 3.1 94 94
r 0.532667 2 3 cbr 1000 ------- 2 1.0 3.1 89 89
- 0.534667 1 2 cbr 1000 ------- 2 1.0 3.1 98 98
r 0.535333 1 2 cbr 1000 ------- 2 1.0 3.1 95 95
+ 0.535333 2 3 cbr 1000 ------- 2 1.0 3.1 95 95
- 0.535333 2 3 cbr 1000 ------- 2 1.0 3.1 95 95
r 0.538 2 3 cbr 1000 ------- 2 1.0 3.1 90 90
+ 0.54 1 2 cbr 1000 ------- 2 1.0 3.1 99 99
- 0.54 1 2 cbr 1000 ------- 2 1.0 3.1 99 99
+ 0.54 1 2 cbr 1000 ------- 2 1.0 3.1 100 100
+ 0.54 1 2 cbr 1000 ------- 2 1.0 3.1 101 101
r 0.540667 1 2 cbr 1000 ------- 2 1.0 3.1 96 96
+ 0.540667 2 3 cbr 1000 ------- 2 1.0 3.1 96 96
- 0.540667 2 3 cbr 1000 ------- 2 1.0 3.1 96 96
r 0.542 2 3 cbr 1000 ------- 2 1.0 3.1 91 91
- 0.544 1 2 cbr 1000 ------- 2 1.0 3.1 100 100
r 0.544667 1 2 cbr 1000 ------- 2 1.0 3.1 97 97
+ 0.544667 2 3 cbr 1000 ------- 2 1.0 3.1 97 97
- 0.544667 2 3 cbr 1000 ------- 2 1.0 3.1 97 97
r 0.546 2 3 cbr 1000 ------- 2 1.0 3.1 92 92
- 0.548 1 2 cbr 1000 ------- 2 1.0 3.1 101 101
r 0.548667 1 2 cbr 1000 ------- 2 1.0 3.1 98 98
+ 0.548667 2 3 cbr 1000 ------- 2 1.0 3.1 98 98
- 0.548667 2 3 cbr 1000 ------- 2 1.0 3.1 98 98
r 0.551333 2 3 cbr 1000 ------- 2 1.0 3.1 93 93
+ 0.553333 1 2 cbr 1000 ------- 2 1.0 3.1 102 102
- 0.553333 1 2 cbr 1000 ------- 2 1.0 3.1 102 102
+ 0.553333 1 2 cbr 1000 ------- 2 1.0 3.1 103 103
+ 0.553333 1 2 cbr 1000 ------- 2 1.0 3.1 104 104
r 0.554 1 2 cbr 1000 ------- 2 1.0 3.1 99 99
+ 0.554 2 3 cbr 1000 ------- 2 1.0 3.1 99 99
- 0.554 2 3 cbr 1000 ------- 2 1.0 3.1 99 99
r 0.555333 2 3 cbr 1000 ------- 2 1.0 3.1 94 94
- 0.557333 1 2 cbr 1000 ------- 2 1.0 3.1 103 103
r 0.558 1 2 cbr 1000 ------- 2 1.0 3.1 100 100
+ 0.558 2 3 cbr 1000 ------- 2 1.0 3.1 100 100
- 0.558 2 3 cbr 1000 ------- 2 1.0 3.1 100 100
r 0.559333 2 3 cbr 1000 ------- 2 1.0 3.1 95 95
- 0.561333 1 2 cbr 1000 ------- 2 1.0 3.1 104 104
r 0.562 1 2 cbr 1000 ------- 2 1.0 3.1 101 101
+ 0.562 2 3 cbr 1000 ------- 2 1.0 3.1 101 101
- 0.562 2 3 cbr 1000 ------- 2 1.0 3.1 101 101
r 0.564667 2 3 cbr 1000 ------- 2 1.0 3.1 96 96
+ 0.566667 1 2 cbr 1000 ------- 2 1.0 3.1 105 105
- 0.566667 1 2 cbr 1000 ------- 2 1.0 3.1 105 105
+ 0.566667 1 2 cbr 1000 ------- 2 1.0 3.1 106 106
+ 0.566667 1 2 cbr 1000 ------- 2 1.0 3.1 107 107
r 0.567333 1 2 cbr 1000 ------- 2 1.0 3.1 102 102
+ 0.567333 2 3 cbr 1000 ------- 2 1.0 3.1 102 102
- 0.567333 2 3 cbr 1000 ------- 2 1.0 3.1 102 102
r 0.568667 2 3 cbr 1000 ------- 2 1.0 3.1 97 97
- 0.570667 1 2 cbr 1000 ------- 2 1.0 3.1 106 106
r 0.571333 1 2 cbr 1000 ------- 2 1.0 3.1 103 103
+ 0.571333 2 3 cbr 1000 ------- 2 1.0 3.1 103 103
- 0.571333 2 3 cbr 1000 ------- 2 1.0 3.1 103 103
r 0.572667 2 3 cbr 1000 ------- 2 1.0 3.1 98 98
- 0.574667 1 2 cbr 1000 ------- 2 1.0 3.1 107 107
r 0.575333 1 2 cbr 1000 ------- 2 1.0 3.1 104 104
+ 0.575333 2 3 cbr 1000 ------- 2 1.0 3.1 104 104
- 0.575333 2 3 cbr 1000 ------- 2 1.0 3.1 104 104
r 0.578 2 3 cbr 1000 ------- 2 1.0 3.1 99 99
+ 0.58 1 2 cbr 1000 ------- 2 1.0 3.1 108 108
- 0.58 1 2 cbr 1000 ------- 2 1.0 3.1 108 108
+ 0.58 1 2 cbr 1000 ------- 2 1.0 3.1 109 109
+ 0.58 1 2 cbr 1000 ------- 2 1.0 3.1 110 110
r 0.580667 1 2 cbr 1000 ------- 2 1.0 3.1 105 105
+ 0.580667 2 3 cbr 1000 ------- 2 1.0 3.1 105 105
- 0.580667 2 3 cbr 1000 ------- 2 1.0 3.1 105 105
r 0.582 2 3 cbr 1000 ------- 2 1.0 3.1 100 100
- 0.584 1 2 cbr 1000 ------- 2 1.0 3.1 109 109